<?xml version="1.0"?>
<VTKFile type="UnstructuredGrid"  version="0.1"  >
<UnstructuredGrid>
<Piece  NumberOfPoints="4790" NumberOfCells="9305">
<Points>
<DataArray  type="Float64"  NumberOfComponents="3"  format="ascii">0 0.1 0  0 0.5 0  1 0.5 0  1 0 0  0.5 0 0  0.5 0.1 0  0 0.4800000000000553 0  0 0.4600000000001105 0  0 0.4400000000001658 0  0 0.4200000000002211 0  0 0.4000000000002764 0  0 0.3800000000003317 0  0 0.360000000000387 0  0 0.3400000000004422 0  0 0.3200000000004975 0  0 0.3000000000005419 0  0 0.2800000000004954 0  0 0.2600000000004401 0  0 0.2400000000003805 0  0 0.220000000000334 0  0 0.2000000000002766 0  0 0.1800000000002191 0  0 0.1600000000001724 0  0 0.1400000000001128 0  0 0.120000000000051 0  0.01963243144016731 0.1 0  0.03857108805706439 0.1 0  0.05684047856737802 0.1 0  0.07446426466449087 0.1 0  0.09146524844450402 0.1 0  0.1078654473610233 0.1 0  0.1236860911310311 0.1 0  0.1389476579249711 0.1 0  0.1536699072207785 0.1 0  0.1678718938815944 0.1 0  0.1815720045091165 0.1 0  0.1947879808810559 0.1 0  0.2075369227309616 0.1 0  0.2198353376173343 0.1 0  0.231699146474032 0.1 0  0.243143706810202 0.1 0  0.254183835248261 0.1 0  0.2648338249237018 0.1 0  0.2751074586545415 0.1 0  0.2850180402525615 0.1 0  0.2945783974301098 0.1 0  0.3038009072067748 0.1 0  0.3126975090532298 0.1 0  0.3212797193027127 0.1 0  0.3295586467694136 0.1 0  0.3375450114857927 0.1 0  0.3452491505904815 0.1 0  0.35268103831506 0.1 0  0.3598502954275992 0.1 0  0.3667662029177419 0.1 0  0.3734377132406222 0.1 0  0.3798734626258744 0.1 0  0.3860817834658347 0.1 0  0.3920707116934861 0.1 0  0.3978480012701851 0.1 0  0.4034211307541116 0.1 0  0.408797314731544 0.1 0  0.4139835132049431 0.1 0  0.4189864398517052 0.1 0  0.4238125710393615 0.1 0  0.4284681553991598 0.1 0  0.4329592177752952 0.1 0  0.437291573800189 0.1 0  0.4414708314490007 0.1 0  0.4455024004539065 0.1 0  0.4493915003890666 0.1 0  0.4531431659591078 0.1 0  0.4567622542333064 0.1 0  0.460253448943969 0.1 0  0.463621272005446 0.1 0  0.4668700805906625 0.1 0  0.4700040816250304 0.1 0  0.4730273320343194 0.1 0  0.4759437457104112 0.1 0  0.4787570982463745 0.1 0  0.4814710312012645 0.1 0  0.4840890583010472 0.1 0  0.4866145685554491 0.1 0  0.4890508312171765 0.1 0  0.491401000410263 0.1 0  0.4936681188373349 0.1 0  0.4958551202068255 0.1 0  0.4979648368392376 0.1 0  0.5 0.09800000000000553 0  0.5 0.09600000000001106 0  0.5 0.09400000000001658 0  0.5 0.09200000000002211 0  0.5 0.09000000000002764 0  0.5 0.08800000000003316 0  0.5 0.0860000000000387 0  0.5 0.08400000000004422 0  0.5 0.08200000000004976 0  0.5 0.08000000000005528 0  0.5 0.0780000000000608 0  0.5 0.07600000000006633 0  0.5 0.07400000000007186 0  0.5 0.07200000000007739 0  0.5 0.07000000000008291 0  0.5 0.06800000000008843 0  0.5 0.06600000000009396 0  0.5 0.06400000000009949 0  0.5 0.06200000000010502 0  0.5 0.06000000000011054 0  0.5 0.05800000000011607 0  0.5 0.0560000000001216 0  0.5 0.05400000000012713 0  0.5 0.05200000000013266 0  0.5 0.05000000000013682 0  0.5 0.04800000000013254 0  0.5 0.04600000000012706 0  0.5 0.04400000000012127 0  0.5 0.04200000000011594 0  0.5 0.04000000000010998 0  0.5 0.03800000000010484 0  0.5 0.03600000000009872 0  0.5 0.03400000000009436 0  0.5 0.03200000000008743 0  0.5 0.0300000000000834 0  0.5 0.02800000000007617 0  0.5 0.02600000000007248 0  0.5 0.02400000000006566 0  0.5 0.02200000000006196 0  0.5 0.02000000000005471 0  0.5 0.01800000000005068 0  0.5 0.01600000000004377 0  0.5 0.01400000000003944 0  0.5 0.01200000000003283 0  0.5 0.01000000000002817 0  0.5 0.008000000000021878 0  0.5 0.006000000000016895 0  0.5 0.004000000000010953 0  0.5 0.002000000000005636 0  0.5020351631607595 0 0  0.5041448797931685 0 0  0.5063318811626558 0 0  0.5085989995897241 0 0  0.5109491687828071 0 0  0.5133854314445303 0 0  0.5159109416989278 0 0  0.5185289687987059 0 0  0.521242901753591 0 0  0.5240562542895492 0 0  0.5269726679656352 0 0  0.5299959183749182 0 0  0.5331299194092797 0 0  0.5363787279944897 0 0  0.5397465510559596 0 0  0.5432377457666147 0 0  0.5468568340408053 0 0  0.5506084996108382 0 0  0.5544975995459895 0 0  0.5585291685508857 0 0  0.5627084261996874 0 0  0.5670407822245705 0 0  0.5715318446006946 0 0  0.5761874289604811 0 0  0.5810135601481249 0 0  0.5860164867948734 0 0  0.5912026852682586 0 0  0.5965788692456765 0 0  0.6021519987295874 0 0  0.6079292883062699 0 0  0.6139182165339039 0 0  0.620126537373846 0 0  0.6265622867590789 0 0  0.6332337970819388 0 0  0.6401497045720601 0 0  0.6473189616845769 0 0  0.6547508494091318 0 0  0.6624549885137958 0 0  0.6704413532301485 0 0  0.6787202806968222 0 0  0.6873024909462755 0 0  0.6961990927927005 0 0  0.7054216025693338 0 0  0.7149819597468482 0 0  0.7248925413448323 0 0  0.735166175075634 0 0  0.7458161647510353 0 0  0.7568562931890914 0 0  0.7683008535252838 0 0  0.7801646623820069 0 0  0.7924630772684071 0 0  0.8052120191183429 0 0  0.8184279954903164 0 0  0.8321281061178757 0 0  0.8463300927787325 0 0  0.8610523420745853 0 0  0.8763139088685739 0 0  0.8921345526386342 0 0  0.9085347515552108 0 0  0.9255357353352855 0 0  0.9431595214324577 0 0  0.9614289119428172 0 0  0.9803675685597715 0 0  1 0.01999999999996093 0  1 0.03999999999992259 0  1 0.05999999999989158 0  1 0.07999999999983724 0  1 0.09999999999977893 0  1 0.1199999999997206 0  1 0.1399999999996624 0  1 0.1599999999996041 0  1 0.1799999999995457 0  1 0.1999999999994874 0  1 0.2199999999994292 0  1 0.2399999999993709 0  1 0.2599999999993681 0  1 0.2799999999994208 0  1 0.2999999999994734 0  1 0.3199999999995261 0  1 0.3399999999995787 0  1 0.3599999999996314 0  1 0.379999999999684 0  1 0.3999999999997367 0  1 0.4199999999997894 0  1 0.4399999999998421 0  1 0.4599999999998947 0  1 0.4799999999999474 0  0.9799999999999167 0.5 0  0.9599999999998334 0.5 0  0.9399999999997501 0.5 0  0.9199999999996669 0.5 0  0.8999999999995835 0.5 0  0.879999999999508 0.5 0  0.8599999999995834 0.5 0  0.8399999999997222 0.5 0  0.819999999999861 0.5 0  0.7999999999999997 0.5 0  0.7800000000001385 0.5 0  0.7600000000002772 0.5 0  0.7400000000004161 0.5 0  0.7200000000005549 0.5 0  0.7000000000006936 0.5 0  0.6800000000008324 0.5 0  0.660000000000971 0.5 0  0.6400000000011098 0.5 0  0.6200000000012484 0.5 0  0.6000000000013872 0.5 0  0.5800000000015259 0.5 0  0.5600000000016645 0.5 0  0.5400000000018033 0.5 0  0.5200000000019419 0.5 0  0.500000000002059 0.5 0  0.4800000000019974 0.5 0  0.4600000000019141 0.5 0  0.4400000000018309 0.5 0  0.4200000000017478 0.5 0  0.4000000000016645 0.5 0  0.3800000000015813 0.5 0  0.360000000001498 0.5 0  0.3400000000014148 0.5 0  0.3200000000013316 0.5 0  0.3000000000012484 0.5 0  0.2800000000011651 0.5 0  0.2600000000010819 0.5 0  0.2400000000009987 0.5 0  0.2200000000009155 0.5 0  0.2000000000008322 0.5 0  0.180000000000749 0.5 0  0.1600000000006658 0.5 0  0.1400000000005825 0.5 0  0.1200000000004994 0.5 0  0.1000000000004161 0.5 0  0.08000000000033292 0.5 0  0.06000000000024963 0.5 0  0.04000000000016646 0.5 0  0.02000000000008328 0.5 0  0.6887700835729634 0.2331368259269292 0  0.5988031913808628 0.09874306197629529 0  0.4993820196235224 0.2999314765776309 0  0.5570114332434914 0.05700000000012034 0  0.2991896523184424 0.2997397142867855 0  0.4983034899650031 0.200609382815889 0  0.3835959664534144 0.2143978421282214 0  0.5431667946300541 0.09965439269688744 0  0.4990648531021758 0.1498291177076869 0  0.435297553832655 0.1660249469495528 0  0.5709073870582005 0.1689479893390438 0  0.5325570647816531 0.03295544154497529 0  0.7102017811580916 0.1118100437031227 0  0.5286913254190443 0.06079758313959373 0  0.1639831563540526 0.2473016294767788 0  0.8439780289807264 0.1971784128925415 0  0.4649626145655998 0.1363677319328097 0  0.2903454565366768 0.1944128707286938 0  0.521615451129356 0.1250954658329011 0  0.5609021398376968 0.2491783628770581 0  0.5222969435110573 0.08307989829167536 0  0.8010552194195922 0.3447818177991578 0  0.6420406696196009 0.3610229416535371 0  0.6591935059144832 0.06542660681678422 0  0.6062699622628825 0.04828483026540279 0  0.4969099785230297 0.1250285910122842 0  0.6488074729838402 0.1593739134344317 0  0.5187277702302592 0.01834053406658431 0  0.3990632337104194 0.3173721871378546 0  0.3829776230458542 0.1534781973391642 0  0.4437449981922332 0.2264713944254058 0  0.5192508208388015 0.04500008137011678 0  0.1916271386482513 0.3718000478945278 0  0.8011034526871305 0.08679701902347077 0  0.5606150633498825 0.02772239918012727 0  0.5168741081829025 0.09895983880008022 0  0.4344815929267517 0.1309930577957881 0  0.4652029287284775 0.4014945358391824 0  0.4705083556544283 0.1718786682531588 0  0.477104741531043 0.1202184619393837 0  0.5591541301745373 0.1343464627814085 0  0.5342524877492387 0.1604859994118641 0  0.5441132977132078 0.2042434962897287 0  0.6146456664284635 0.2151035754803196 0  0.2181055854266606 0.17802183474466 0  0.3381860854509214 0.3927430885452194 0  0.5523526323906505 0.3694221306457675 0  0.5442689406440209 0.07708193559349458 0  0.5152993482409072 0.06906100192085719 0  0.3343678103552186 0.1500892017944789 0  0.8967710598667482 0.09857099318973919 0  0.7550195997422887 0.1818903797861007 0  0.5087700764379831 0.1143343152134471 0  0.8931420253811045 0.2877956623708923 0  0.5131738464047959 0.0309915239054615 0  0.5706528558291808 0.08728668321509085 0  0.6271996078075898 0.2871110701986258 0  0.7103874311633589 0.0535335076698256 0  0.4877221344643441 0.2492720538041035 0  0.5987239861410903 0.1382273445051608 0  0.8933133885299728 0.3945916036355959 0  0.1005488158400618 0.3291683246636875 0  0.7702892086032307 0.2641350104178356 0  0.5125665969105208 0.05729781327808573 0  0.4063120642416667 0.1291824480943013 0  0.7041681389464323 0.3141155133696744 0  0.727925783183343 0.4032126268489436 0  0.2379795371750008 0.2493355615782368 0  0.6429106712790595 0.1119955339240442 0  0.4433987106784549 0.2823113436999652 0  0.0996653479027637 0.1862647392439635 0  0.5357023789068972 0.0166352172876
[...]
<PointData  Scalars="f_41"> 
<DataArray  type="Float64"  Name="f_41"  format="ascii">3.0831300474167080e-02  -1.8184077424150519e-01  -1.8184482025746232e-01  3.0762055685424897e-02  3.0713757970637488e-02  3.0703566900268663e-02  -1.6228403688846699e-01  -1.4349110884336524e-01  -1.2557865839536639e-01  -1.0851426996756970e-01  -9.2370283536799103e-02  -7.7114923004490799e-02  -6.2778114295838128e-02  -4.9385589002588638e-02  -3.6947221054920792e-02  -2.5494246470584580e-02  -1.5063977318034542e-02  -5.6314004606928154e-03  2.7168107452655225e-03  1.0052018964460162e-02  1.6298976592410086e-02  2.1454742785108151e-02  2.5511235720207616e-02  2.8441369896308039e-02  3.0168584810481049e-02  3.0743263601247031e-02  3.0788004098818302e-02  3.0732265683578990e-02  3.0749281286750731e-02  3.0754240020987051e-02  3.0748633874661209e-02  3.0740426685000332e-02  3.0732425493751339e-02  3.0748783234804494e-02  3.0740740313748897e-02  3.0746145544091729e-02  3.0730657494112811e-02  3.0729506146396836e-02  3.0751701828069671e-02  3.0719746959534194e-02  3.0724786782077313e-02  3.0723573353246759e-02  3.0724796536676827e-02  3.0721973782435234e-02  3.0720437844969271e-02  3.0737481601982194e-02  3.0716852517017734e-02  3.0714894948855691e-02  3.0714537859816857e-02  3.0723272732048872e-02  3.0719062783882606e-02  3.0719107204585833e-02  3.0715848469584174e-02  3.0716679429749372e-02  3.0702157632278428e-02  3.0714023470559827e-02  3.0714574895840601e-02  3.0711101543030275e-02  3.0707553812179232e-02  3.0707740962535531e-02  3.0707375574813536e-02  3.0711719220871014e-02  3.0705806156048517e-02  3.0707828509536822e-02  3.0707866523736797e-02  3.0706827981592653e-02  3.0712134048383608e-02  3.0706229272699347e-02  3.0705201975207996e-02  3.0704737564046840e-02  3.0708908655471184e-02  3.0705184259600234e-02  3.0704952270417557e-02  3.0704741220098246e-02  3.0706244212179660e-02  3.0706342369614531e-02  3.0705240294788026e-02  3.0705532205409166e-02  3.0705650162680211e-02  3.0705481381886692e-02  3.0705502768025385e-02  3.0705215512361800e-02  3.0707035809570640e-02  3.0704783578528266e-02  3.0704890793882195e-02  3.0705395618723028e-02  3.0705851374398175e-02  3.0706443159125584e-02  3.0709436141237806e-02  3.0708109844449549e-02  3.0708736082000251e-02  3.0708944517684109e-02  3.0709278485584780e-02  3.0709508657729374e-02  3.0709797537734018e-02  3.0710034610353321e-02  3.0710254811332657e-02  3.0710465177958380e-02  3.0710683985376075e-02  3.0710778239253486e-02  3.0711085936821581e-02  3.0711145902692846e-02  3.0711396618516601e-02  3.0711460044085679e-02  3.0711649721873877e-02  3.0711819788814744e-02  3.0711964939174032e-02  3.0712069725279390e-02  3.0712188554890218e-02  3.0712308328882998e-02  3.0712413027429324e-02  3.0712448449963278e-02  3.0712563854364768e-02  3.0712658861534313e-02  3.0712822713244610e-02  3.0712914137174360e-02  3.0712978767532817e-02  3.0712993139819868e-02  3.0713107020840857e-02  3.0713188146037726e-02  3.0713298424263402e-02  3.0713309193868856e-02  3.0713326462358300e-02  3.0713394242733390e-02  3.0713453419300776e-02  3.0713517197583758e-02  3.0713553138903758e-02  3.0713586653155028e-02  3.0713625250924591e-02  3.0713642095862751e-02  3.0713667243832673e-02  3.0713686652841344e-02  3.0713716412677873e-02  3.0713731089521249e-02  3.0713740914664202e-02  3.0713749976848594e-02  3.0713755897373820e-02  3.0713759874082966e-02  3.0713765443080989e-02  3.0713775304781196e-02  3.0713792208982425e-02  3.0713807027773952e-02  3.0713834311287436e-02  3.0713864808782975e-02  3.0713917237982523e-02  3.0713946828944547e-02  3.0713985735052553e-02  3.0714091996775262e-02  3.0714173175491685e-02  3.0714135849886078e-02  3.0714355034736639e-02  3.0714427755136001e-02  3.0714566991353179e-02  3.0714706935389153e-02  3.0714825981840489e-02  3.0714973801201372e-02  3.0715130405099701e-02  3.0715383820229650e-02  3.0715637131252065e-02  3.0715846427048676e-02  3.0716013357345570e-02  3.0716396159080860e-02  3.0716671710556996e-02  3.0717005144397555e-02  3.0717222562798147e-02  3.0717837249634415e-02  3.0717992390298862e-02  3.0718495795541034e-02  3.0719547742081039e-02  3.0719381171697036e-02  3.0721307942425929e-02  3.0720575136240609e-02  3.0722210260092832e-02  3.0721151481908505e-02  3.0720153539089714e-02  3.0723151366075140e-02  3.0726523217683616e-02  3.0724947173389083e-02  3.0724149778410551e-02  3.0723293070017345e-02  3.0731087516506501e-02  3.0726425906208228e-02  3.0726269469871708e-02  3.0732561690710286e-02  3.0731369644770960e-02  3.0725650741564439e-02  3.0727974457416533e-02  3.0731065884199826e-02  3.0729795507956972e-02  3.0737404938058991e-02  3.0744915612867390e-02  3.0729796810515422e-02  3.0731807385860215e-02  3.0735998195809532e-02  3.0734466659773370e-02  3.0750684984341487e-02  3.0739921852396813e-02  3.0743231507764406e-02  3.0754894939188784e-02  3.0741234506336989e-02  3.0527551814137723e-02  2.9824606964413310e-02  2.8589666191184263e-02  2.6859566510833224e-02  2.4568797432263284e-02  2.1694395226460314e-02  1.8214564267935690e-02  1.4111820104952072e-02  9.3106857785549991e-03  3.8116260884922897e-03  -2.4069951021683969e-03  -9.3790695521736196e-03  -1.7138131770472031e-02  -2.5699132491512927e-02  -3.5115007971285819e-02  -4.5398997177259176e-02  -5.6570785030349166e-02  -6.8691505185333152e-02  -8.1762651021341268e-02  -9.5814279488187812e-02  -1.1087540774523608e-01  -1.2696790281944242e-01  -1.4422588099962047e-01  -1.6241209372716442e-01  -1.8182955156842845e-01  -1.8186718317344042e-01  -1.8187064325763944e-01  -1.8185169903092974e-01  -1.8185784059243731e-01  -1.8190883001078942e-01  -1.8190049852729978e-01  -1.8178516684469823e-01  -1.8183770963182364e-01  -1.8187771221603335e-01  -1.8191075128636680e-01  -1.8179905659915518e-01  -1.8189175681418990e-01  -1.8186639093356652e-01  -1.8190218414698206e-01  -1.8188826587184750e-01  -1.8189971244857792e-01  -1.8191562268662506e-01  -1.8181949313137760e-01  -1.8189232807123762e-01  -1.8182096385375787e-01  -1.8190659065804854e-01  -1.8189479449587120e-01  -1.8184726544339844e-01  -1.8187901146264682e-01  -1.8189324859109607e-01  -1.8190159070603704e-01  -1.8187884350629396e-01  -1.8189550682257336e-01  -1.8187144698343186e-01  -1.8184733485225157e-01  -1.8190900486241016e-01  -1.8186008448645052e-01  -1.8191245776217921e-01  -1.8184777097057303e-01  -1.8186802873139923e-01  -1.8185649866598053e-01  -1.8187900108966173e-01  -1.8187899170097213e-01  -1.8185323018661817e-01  -1.8185368024979659e-01  -1.8187203759284890e-01  -1.8187173414023608e-01  -1.8181757603056742e-01  -1.8186522397889737e-01  -1.8187440851143585e-01  -1.8186614514060553e-01  -1.8186931094187520e-01  -1.8183365019656716e-01  -3.6485242720137407e-03  2.8071039349169536e-02  -2.7747473787837415e-02  3.0595134154167165e-02  -2.5518714468112491e-02  1.3861262734712797e-02  1.1505453207119468e-02  2.9641913272411613e-02  2.5808025142333275e-02  2.3891538580754622e-02  1.9103652628183154e-02  3.0750839051235258e-02  2.4411952684551954e-02  3.0725011559378925e-02  -2.2258128933619201e-04  5.3291644040197855e-03  2.8431438958304103e-02  1.7787700448712099e-02  2.8473190407407444e-02  -5.5522395426919214e-03  3.0612438601356963e-02  -5.8612267215507073e-02  -6.7038813393248853e-02  2.9195362042051438e-02  3.0318276293023444e-02  2.9258107437235305e-02  1.8062412912313499e-02  3.0723001551117703e-02  -3.6062957492371768e-02  2.6427711023439850e-02  6.6158193174844279e-03  3.0741118654328412e-02  -7.1143974354495626e-02  2.6526895327734105e-02  3.0732994099808938e-02  3.0413415175112819e-02  2.9180330651645766e-02  -9.4180028083342818e-02  2.2145419405005844e-02  2.9934820133544690e-02  2.5758806029551114e-02  2.2506716643115345e-02  1.1077436167052751e-02  4.8173889672607287e-03  2.1893491315099496e-02  -8.6846782290871977e-02  -7.1408249935324672e-02  3.0415648402663319e-02  3.0721922384859587e-02  2.7013343344742039e-02  2.4924824210549475e-02  1.0470543583577694e-02  2.9890669028559934e-02  -2.8867419609644007e-02  3.0724966434125329e-02  2.9527717278047434e-02  -2.4567538630268192e-02  2.9462398756041348e-02  -3.2735962954892734e-03  2.3572455076980497e-02  -9.1735133673117378e-02  -4.2537096847043966e-02  -1.7284267387218950e-02  3.0728803544306623e-02  2.9401637994309084e-02  -4.0056151941327195e-02  -9.7440906212442058e-02  -1.0888404798253515e-03  2.5651358916165379e-02  -1.7517296866907658e-02  1.9957412703460742e-02  3.0731102470869177e-02  3.0418575189939099e-02  3.0672360874201721e-02  3.0715234408865189e-02  3.0290392801505490e-02  6.6437068090285034e-04  3.0067813485224592e-02  -3.6807793645849858e-02  3.0678006682306865e-02  3.0155300833236132e-02  2.0030977611725835e-02  3.0736904541245134e-02  2.8083350658822930e-02  2.9360302883770166e-02  2.7800721260091511e-02  2.8922049560322446e-02  2.0014215783420226e-02  1.9871790284034643e-02  1.4727999250313402e-02  -5.0292204169474428e-02  -1.0354202394211175e-01  1.3680861349901034e-02  2.9367343356328023e-02  3.3030167486035691e-03  -1.1270359590207104e-02  2.8188493914857702e-02  -6.6499340265664800e-02  1.0032707643539383e-02  3.0604515907924727e-02  3.0712901210144181e-02  2.7521502651116293e-02  -8.1465490694612591e-02  3.0291911600600879e-02  3.0722442291505860e-02  -1.1542588917797539e-01  3.0717322481929599e-02  2.9292260843621788e-02  3.0623016125780191e-02  1.5809814936223843e-02  -1.1233901787356103e-01  -4.8420805567801770e-03  3.0437674261625015e-02  2.6932391899537736e-02  -2.9092833699392535e-02  3.0730921116003014e-02  -1.3277363678225077e-02  3.0209934928348801e-02  2.8632418747660870e-02  1.6497201708232493e-02  2.1323568333156691e-02  9.2178553566238317e-03  2.7533528241810629e-02  1.9892668148324827e-02  -1.0995890990196995e-03  -4.8529363609246111e-02  2.5148517668594762e-02  -1.1999465043277881e-01  2.6351546154597803e-02  3.0652343373496919e-02  -1.1842140670145061e-01  2.6958006674177887e-02  -5.8484143452309990e-02  -1.5728839009791312e-02  3.0747099767941644e-02  2.8208075954410609e-02  3.0720325578467753e-02  3.0721707634736389e-02  2.4553309084697175e-02  3.0664243751035623e-02  3.0680186154558382e-02  7.3344262522748423e-03  3.0719676088497693e-02  3.0201271541925152e-02  3.0214995980616475e-02  3.0449270062229181e-02  2.2026988218426781e-02  3.0719677881717453e-02  3.0737407261579464e-02  -7.9429312632493029e-03  2.5890135220275549e-02  -1.1024195096519264e-01  2.6441699180888154e-02  3.0446183526663426e-02  2.1136122714714749e-02  3.0749363087832216e-02  2.9572533968987760e-02  2.9889764220986232e-02  3.1115632658991203e-03  6.8109229514529456e-03  -1.2647892431533747e-01  1.0133353626735545e-02  -7.9905839845842187e-03  1.7237473244133116e-02  3.0340964495231083e-02  2.7293664189040494e-02  3.0517467109650413e-02  -5.7298205432388540e-02  2.9412231709917767e-02  2.6482054080127392e-02  1.5719384108564344e-02  -1.0131533123793550e-02  -9.6773173056023730e-04  2.5993638768127193e-02  -4.8941952592871277e-02  2.5511519242057919e-02  3.0010334421913525e-02  -1.6343866523879670e-03  -2.4859506094681662e-02  2.1112402641432326e-02  -5.6279138962578065e-02  3.0430040063820163e-02  3.0742204876290705e-02  2.9109415941981718e-02  -7.8251245043995013e-02  1.3739918148828013e-02  2.7790908611239604e-02  -6.1676400648723428e-02  -4.8861242755412820e-03  -1.2507602235581772e-01  2.2616963130133616e-02  2.6936401285762211e-02  2.8934777603982394e-02  1.0270546472517026e-02  -1.1285185360233199e-01  3.0699047041928072e-02  2.9657499608208227e-02  3.0746419528821851e-02  3.0717281627753393e-02  3.0716336417393589e-02  2.9951068023113918e-02  -1.2646703477987872e-01  1.5969549679033610e-02  3.0739591418724253e-02  2.9886694711460486e-02  2.0557770277217589e-02  -1.8153570287740749e-02  -1.7423132995986624e-02  2.9621154420704114e-02  2.3128987532294362e-02  2.8349879870268570e-02  -6.9153211543367038e-02  -1.2906158502883083e-01  1.2212594994832864e-02  -6.0318016280161953e-03  -1.6048044428231208e-02  2.9709266060561096e-02  -2.5943307375144109e-02  -2.3609681711572225e-02  2.8848870131902196e-02  -1.2649193270858786e-01  -2.0432279727144283e-02  2.9846576385949734e-02  -1.2910600833261218e-01  2.6252402739612740e-02  -7.7430562213666246e-02  2.8790636626471584e-02  -1.3227945879648115e-01  2.6371325502031712e-02  2.1597187190044852e-02  3.0231591610866054e-02  -1.7694629835233715e-02  2.3463107762426796e-02  3.0708660230445543e-02  3.0418723312413767e-02  2.0281180887765031e-02  1.7816401566826789e-02  3.0717862689379472e-02  3.0715717194906615e-02  3.0715840885720973e-02  1.9109255122924447e-02  3.0732939908317713e-02  3.0699945068922745e-02  2.8532489360169846e-02  1.2819031909142350e-02  3.0694753611520804e-02  3.0731765702499057e-02  3.0713907414462654e-02  3.0714574836966702e-02  3.0538035952812979e-02  3.0535794209827469e-02  1.1848254896996476e-02  2.1665380709537121e-02  3.0695868074767204e-02  -2.5818213678272046e-02  2.8304554697966586e-02  -4.3315416167452755e-02  -6.6646057969139125e-02  3.0701596348375867e-02  2.7608503550297505e-02  2.7752552747560708e-02  3.0751437948889869e-02  3.0724229981026831e-02  3.0525475498548390e-02  3.0580922909801606e-02  1.9796700335933948e-03  -3.2198259328334790e-02  1.9469586928421902e-02  2.7857646886436122e-02  2.9539157052899764e-02  -3.6008967518109745e-02  3.0721592223582714e-02  9.6830527912554944e-03  2.9783763871701202e-02  -3.2293399636831054e-02  -1.3292066579693165e-01  3.0615925951345772e-02  -3.0205139684528488e-02  2.7026937212732024e-02  -2.8630692126012557e-02  -4.0747142987220000e-02  -5.6516716805614028e-02  2.4139347086403522e-02  -5.1412471198716087e-02  2.3333458126039527e-02  -4.9983083593843236e-02  -8.6719116560725479e-02  3.0377735428775386e-02  1.2956476170153029e-02  3.0658536054596348e-02  3.0656159685298841e-02  2.9680513961179180e-02  -9.1162084576071570e-02  2.0674032116074336e-02  5.4475630207921240e-03  -3.5273080864909288e-02  -1.3398408196409139e-01  1.3069669952146833e-02  3.0732101323123123e-02  1.4439287053574952e-02  1.6501996583428748e-03  2.9052915372968342e-02  1.9790014374641580e-02  1.3115961716803114e-02  2.8946852835167434e-02  3.0349795966592926e-02  -2.0149609919029364e-05  3.0725176999035458e-02  -1.7730573485591299e-02  1.3953736729113157e-02  2.9300468299466909e-02  3.0722997338818357e-02  -5.6843738949835812e-02  -1.3689918612474705e-01  5.8695159429023990e-03  2.5666622994821236e-02  -8.3793323449573368e-02  3.0753244585750135e-02  3.0108207191653937e-02  3.0718275744138254e-02  2.7613231995754543e-02  -8.7116068834512575e-02  3.0487713009361789e-02  -5.3308690514890259e-03  2.7000287075705377e-02  3.0714810972046244e-02  3.0033770041707576e-02  2.6737029839585806e-02  2.5473989797035603e-02  3.0052610232141362e-02  1.4888736810850624e-02  2.3881183880530128e-02  3.0524259679644838e-02  -2.7394572071450006e-03  2.8690187797450251e-02  3.0587576844328352e-02  -3.4379050847574304e-02  2.8479826561470471e-02  2.5713888518456896e-02  3.0605848094165403e-02  2.5507303483031495e-02  2.6431206913597304e-02  -8.5414213081244188e-03  2.9699145355621136e-02  2.9969509045846585e-02  2.9809652525836262e-02  3.0719041110905836e-02  3.0404043577369172e-02  -1.1849550200917401e-02  3.0716997115450295e-02  8.0701250287028240e-03  3.0742656396225001e-02  2.1648046262718029e-02  6.4275799603668443e-03  -5.3644132854636740e-02  1.7850095743293676e-02  2.2583263356584556e-02  2.3771279467445137e-02  -1.3902245506022065e-01  3.0657775243045700e-02  3.0340973955395641e-02  3.0716701364585479e-02  3.0717960117656585e-02  2.8595617073395620e-02  3.0714250630994352e-02  3.0276096953779311e-02  2.9293507876559644e-02  -9.1161535142917208e-02  1.3121974317805070e-02  3.0049513123341916e-02  2.7303416766345914e-02  -4.5126285017910897e-02  2.1798428492808532e-02  -1.3243501429993223e-02  -1.0291749651615452e-01  1.6399393228187332e-02  -4.9163219929948170e-03  -1.3689639511989588e-01  -2.6425045597966688e-02  -8.2044174709092241e-02  2.8441546662287463e-02  2.9733688547659388e-02  -6.8119208252784516e-02  -4.3001581865368017e-02  2.9346798044681651e-02  2.9682903934774300e-02  3.0743060077891821e-02  3.0120607831662035e-02  3.0691875141422832e-02  2.9729757415090159e-02  3.0148955288184304e-02  -4.9267950338249119e-03  2.5973277268286060e-02  2.9983486984739315e-02  2.3747111697546192e-02  3.0728916981351089e-02  3.8567673839799360e-03  3.0580723592993284e-02  2.4172704730959001e-02  3.0594906258123059e-02  3.0649491092017617e-02  3.0673593633888177e-02  3.0712679207551337e-02  3.0714683868151533e-02  1.6967940608109029e-02  1.8982653611114089e-02  1.8733789889443905e-02  -9.5392964107144762e-02  2.9789894491547907e-02  3.0599386148213295e-02  -7.0209916497657121e-02  -9.4260066553724584e-02  3.0557734264957667e-02  2.7371801497543775e-02  -6.9373719903078005e-03  1.4587876794089185e-02  1.1799645731964622e-02  2.9066424712661319e-02  3.0715613555284276e-02  2.4153109775439604e-02  1.6105406666474274e-02  3.0717643224045642e-02  -5.2023603976759848e-02  -4.1588221577993183e-02  2.4757080894507160e-02  2.9902467065935724e-02  3.0734858932378550e-02  1.5261193393508741e-02  2.6016013507572516e-02  3.0728206403069468e-02  2.6587801534943816e-02  -1.4116625746037822e-01  2.0737199974084460e-02  3.0727721966894304e-02  -8.9546372667203330e-03  -9.7856181715876289e-02  3.0455148974499160e-02  3.0714971799342374e-02  1.2834117435090223e-02  3.0630130434406908e-02  7.0692768630056160e-03  -1.4225975309876418e-01  2.8878557761254552e-02  8.2155247724528518e-03  3.0642349525362773e-02  2.1386103458343731e-02  2.7745993876796878e-03  2.9698809930272074e-02  -7.5097432680676212e-03  3.0513881120780129e-02  3.0713925537216108e-02  -6.9891335308269048e-02  -3.1847310514712353e-02  1.4084263113411147e-03  3.0746078390427062e-02  -3.2453403195646116e-02  -1.4534019161196840e-01  2.8424496799236056e-02  3.0719899323003834e-02  2.4017470540533024e-02  2.0392657200305489e-02  1.7570591137655293e-02  3.0446558539236543e-02  2.8126697460918962e-02  7.9372564450182915e-03  2.3912443863647555e-02  2.9296027928411163e-02  3.0718869276847655e-02  2.8131408845557808e-02  3.0613845285195444e-02  3.0436041202357714e-02  2.7414230911612904e-02  -1.4203274412701172e-01  2.3303390417499562e-03  3.0562704211215829e-02  3.0696947987106482e-02  1.5434738656804911e-02  2.8400825036876989e-02  -1.1818947108609328e-02  1.1078988167003333e-02  -1.4968655040792811e-02  1.3464709458980146e-02  2.9013532108069694e-02  -3.5504190452930163e-03  -6.9595786580469304e-02  8.7415276315993568e-03  2.6290164154275021e-02  2.9014426726909508e-02  -1.4431110408089501e-01  -3.0759381451790253e-03  3.0217888226044883e-02  2.8371675360704368e-02  1.2092050341416302e-02  2.4895813433215862e-02  1.5152174532582444e-03  2.9327946818997540e-02  1.5990690143307815e-02  3.0701309851901133e-02  1.3585503625080254e-03  3.0718507259854526e-02  1.6753727643015269e-02  1.1337335155212564e-02  2.9748482123011542e-02  -5.8029569415712377e-02  3.0713853060371978e-02  3.0715153020813322e-02  -5.1176581821480958e-02  3.0752628792012255e-02  2.3137502361197038e-02  3.0366385717078389e-02  2.9362778765681569e-02  5.2080212991652405e-03  -1.8633185559889130e-03  -1.9361453415432606e-02  2.4902054610084299e-02  -1.3326463667434363e-02  3.0732972300572706e-02  2.8541329392160177e-02  -8.5963485745301396e-02  3.0244695634105114e-02  2.3042476456156438e-02  2.7864916523330747e-02  2.8598240649581275e-02  3.0241568896941243e-02  -1.4565832107281547e-02  2.8239538992235670e-02  2.8787826735267738e-02  3.0359294248860857e-02  1.3005631381523768e-02  -1.1658711463951680e-02  -1.4569362006204348e-01  3.0747160439835376e-02  -1.0839854174543903e-02  2.0729478281745001e-02  3.0199990376283483e-02  4.3484960302315207e-03  -9.9661891877885989e-02  1.8345910280844396e-02  -6.7732325994804402e-02  3.0715544315574134e-02  3.0724675489996342e-02  -4.3059716186414063e-02  3.0710058296436513e-02  3.0301382768761619e-02  -1.4863827540288282e-01  -8.8360593874083973e-02  3.0612866306000540e-02  2.99870150