<?xml version="1.0"?>
<VTKFile type="UnstructuredGrid"  version="0.1"  >
<UnstructuredGrid>
<Piece  NumberOfPoints="3852" NumberOfCells="7360">
<Points>
<DataArray  type="Float64"  NumberOfComponents="3"  format="ascii">0 0 0  0 0.41 0  2.2 0.41 0  2.2 0 0  0.2 0.15 0  0.15 0.2 0  0.2 0.25 0  0.25 0.2 0  0.2097545161007899 0.1509607359798352 0  0.219134171618224 0.153806023374423 0  0.2277785116509268 0.1584265193848371 0  0.2353553390592504 0.1646446609405956 0  0.2415734806150793 0.1722214883489481 0  0.2461939766255306 0.1808658283816641 0  0.249039264020151 0.1902454838991403 0  0.2490392640201666 0.2097545161007811 0  0.2461939766255869 0.2191341716182 0  0.2415734806151802 0.2277785116509009 0  0.2353553390594108 0.235355339059244 0  0.2277785116510524 0.2415734806150789 0  0.2191341716182962 0.2461939766255471 0  0.209754516100834 0.2490392640201561 0  0.1902454838992189 0.2490392640201666 0  0.1808658283818 0.2461939766255869 0  0.1722214883490991 0.2415734806151802 0  0.164644660940756 0.2353553390594108 0  0.1584265193849211 0.2277785116510524 0  0.1538060233744529 0.2191341716182962 0  0.150960735979844 0.209754516100834 0  0.1509607359798352 0.1902454838992101 0  0.153806023374423 0.180865828381776 0  0.1584265193848371 0.1722214883490732 0  0.1646446609405956 0.1646446609407496 0  0.1722214883489481 0.1584265193849207 0  0.1808658283816641 0.1538060233744694 0  0.1902454838991403 0.150960735979849 0  0.09999999999980318 0 0  0.1999999999996354 0 0  0.2999999999994593 0 0  0.3999999999991452 0 0  0.4999999999988309 0 0  0.599999999998495 0 0  0.6999999999982023 0 0  0.7999999999979096 0 0  0.8999999999975735 0 0  0.9999999999972848 0 0  1.099999999997053 0 0  1.199999999997309 0 0  1.299999999997566 0 0  1.399999999997821 0 0  1.49999999999809 0 0  1.599999999998377 0 0  1.69999999999859 0 0  1.799999999998877 0 0  1.899999999999145 0 0  1.999999999999386 0 0  2.099999999999693 0 0  2.2 0.08199999999981657 0  2.2 0.1639999999995688 0  2.2 0.2459999999995603 0  2.2 0.327999999999785 0  2.100000000000048 0.41 0  2.000000000000269 0.41 0  1.900000000000422 0.41 0  1.800000000000679 0.41 0  1.700000000000931 0.41 0  1.600000000001326 0.41 0  1.500000000001665 0.41 0  1.400000000002032 0.41 0  1.300000000002395 0.41 0  1.200000000002644 0.41 0  1.100000000002865 0.41 0  1.000000000002617 0.41 0  0.900000000002368 0.41 0  0.8000000000021192 0.41 0  0.7000000000018587 0.41 0  0.6000000000015786 0.41 0  0.5000000000013736 0.41 0  0.4000000000010933 0.41 0  0.3000000000008329 0.41 0  0.2000000000005997 0.41 0  0.1000000000003003 0.41 0  0 0.3280000000001975 0  0 0.2460000000004372 0  0 0.1640000000004437 0  0 0.08200000000021695 0  0.439039350479032 0.2235433210862024 0  0.3557293424662716 0.1539377961885917 0  0.3450132387946972 0.2399891502764809 0  0.2900756359792848 0.08507884665974728 0  0.2884413411145515 0.3059878288466324 0  0.2102195502178943 0.3385267178242456 0  0.137328909169326 0.3152847369018352 0  0.08490385663776813 0.2628976192695439 0  0.08063302347471875 0.188368977740952 0  0.1005937615311739 0.1162460982751979 0  0.1621860847198582 0.08598327887900903 0  0.3012864586130264 0.1926027915888804 0  1.999140000000448 0.2049999999995642 0  0.2742354912953259 0.1572259708446958 0  0.2871471664627305 0.2264358039321654 0  0.6542851578645765 0.1981889790488746 0  0.2651366296338276 0.2534562504463119 0  0.2371819217149928 0.0977949043027586 0  1.651678197071202 0.2145186615851206 0  1.349674714201118 0.2086119645070391 0  0.9627539291831038 0.2056711800839285 0  0.2360880502985623 0.2733043913425156 0  1.159884231859056 0.2050429640239795 0  0.2502927927237266 0.1358797630898622 0  0.2080582834123368 0.2835355213895352 0  0.1805439632603489 0.278338480667804 0  0.1486243506827335 0.2626014098227327 0  0.1266658889266303 0.2392753516137401 0  0.1179814841582247 0.2069380844236527 0  0.1225167704961566 0.1764957192948648 0  0.1357996569043286 0.1472158045151807 0  0.1619764829264572 0.126298308975886 0  0.1935640279204225 0.116654032325456 0  1.82457000000085 0.2346439024393236 0  0.8027657238591595 0.149277802568535 0  1.498563450727992 0.2632867809910664 0  0.2770405925201826 0.1924926016722167 0  0.470924801584011 0.09138612536042019 0  0.550693598792917 0.2898604497866635 0  0.381089831438127 0.3238078833671811 0  2.074516462495042 0.125705772324225 0  2.083599037046577 0.2769549245607841 0  0.2692296340100125 0.2210592970306522 0  0.7614733075682367 0.2839235561638241 0  1.536698221979284 0.1258192462655419 0  1.231809489345021 0.1282542717942667 0  1.054759157670174 0.1242749934189342 0  1.754535566851005 0.1223197024158991 0  1.90452621597739 0.1324728094649104 0  0.2672409321155211 0.178737994598723 0  1.254401531996246 0.2902808614622134 0  1.04350934597445 0.2986664252663559 0  0.0749710792305778 0.3208721925318313 0  0.5425289614095572 0.165152457827861 0  0.1663208394680799 0.2644065126118989 0  0.1471335176887868 0.2433864007787126 0  0.1345556779484054 0.219852318055334 0  0.131940483167677 0.1932967226753857 0  0.1941574795820069 0.2685534232066453 0  0.2226696214021025 0.1252682734732412 0  0.2193882214552426 0.2661718674478616 0  0.1396865053227576 0.1677617654469802 0  0.8749487631478475 0.295170577255529 0  1.424301820545763 0.1157348858866879 0  1.918515045506933 0.2902236143624367 0  1.744876807925144 0.306628844405037 0  0.2443979144126529 0.254353837216211 0  0.2569054246570621 0.2306780201523878 0  0.2632507216716993 0.2062296523407826 0  0.4609453431326088 0.3138128990490959 0  0.3578015395476809 0.08253318517696946 0  0.2529777826635333 0.155582948480283 0  0.1580369715200277 0.1487041474358234 0  0.652872088668587 0.3101079993636056 0  0.297147332491062 0.2558065812325378 0  0.6188247313471635 0.1101603945467571 0  0.8951149554961688 0.1123812542864208 0  1.592749166085722 0.2985190085719691 0  1.40420309431358 0.2992155383468256 0  1.649189110727275 0.1000387439201274 0  0.2301663900864273 0.1432830242131801 0  0.2064839406544439 0.1345771465164309 0  0.2548204572493643 0.1702022465417566 0  0.1606700828011604 0.2481621709908606 0  0.2605987457303776 0.1928909671966518 0  0.1826942838524941 0.2594610608897559 0  0.1456438338561037 0.2290651013631561 0  0.1387681034994896 0.2058679665896095 0  1.140902260384949 0.3081952438204152 0  2.123402621966431 0.2039515281261525 0  0.7272188829630218 0.1047469619375249 0  0.2060868819369127 0.2616331638469837 0  0.246763614216289 0.2411610007697902 0  0.1405961691450822 0.1819800466423126 0  1.149638048863541 0.08264492713269313 0  0.1809997740285721 0.1365020267363126 0  1.993198408221569 0.09755938404998035 0  0.2287111352430851 0.2547015941619741 0  0.3818716699056283 0.2060398770290832 0  0.39147508084147 0.2656155699545688 0  0.151201080877373 0.1608659990301362 0  0.0542521118046473 0.1382221876243976 0  0.06190301158313444 0.0685934933767465 0  1.317316039400266 0.1015983144534349 0  0.2176417279723976 0.1415790407114221 0  0.2401571300978209 0.1529210337009423 0  0.2618092962776011 0.3566662607419938 0  0.1941527094396574 0.1377969918002053 0  0.9590486261329707 0.3255353063371385 0  0.1708201090411339 0.1447474051814825 0  1.837592370686806 0.3302992722413595 0  0.3197015570210796 0.1212159119695666 0  0.4155281956943757 0.1409543952531078 0  0.0549491513262805 0.2307535706287103 0  0.1668210562270142 0.3605647861782867 0  0.2854688902460447 0.2093700809023571 0  2.013251581901814 0.3292746985146142 0  0.1192191106244758 0.2809901915857802 0  0.2487958366614321 0.04556523514103697 0  0.09061021186838321 0.2240174335271237 0  1.737143840576958 0.20912817770623 0  0.04515017012776967 0.2784708690411318 0  0.5347554646753627 0.08988970780599832 0  0.977104673723579 0.08241628541188413 0  0.336509991617897 0.2888965225844298 0  0.2569238041969055 0.2173711314485607 0  1.906541186051535 0.2125389476829634 0  0.1762338839607841 0.3102437166134606 0  1.449268841077636 0.201011295143529 0  0.8555371485878378 0.2099663446585434 0  1.837208236203613 0.07556229833764837 0  1.264402545318887 0.1992523923163096 0  1.068181074047183 0.2155119107017876 0  0.3158931250274742 0.3421721218291775 0  0.2731958384900449 0.2373435058667565 0  0.09875906484220501 0.1533097574901186 0  0.7355755433976705 0.2066339904079041 0  1.567440499207928 0.2049999999995983 0  1.329829828222916 0.3295825481537897 0  0.8214190147401245 0.07894167681990104 0  1.525459989258997 0.3394220200696043 0  0.1990897327079506 0.06300531675246424 0  0.244701762210989 0.3062404318132603 0  0.1033853772622983 0.3551443431224104 0  0.1178236825374896 0.07148041782551597 0  0.1558198999929474 0.04409380269139784 0  0.3389178979413869 0.198678920661321 0  0.310790717645908 0.2196004930752872 0  2.125022007676643 0.3402049371791425 0  2.130028889485561 0.06535501282233655 0  0.4821161335597635 0.1626909543876269 0  0.2838678108956019 0.1254276466262967 0  0.5062815929260498 0.2376271077316994 0  1.663059277092996 0.3422301118688678 0  1.82292665764828 0.1574809263836269 0  2.052538557905295 0.05717536030732174 0  0.3078251537889645 0.16056368457456 0  0.8108267070172145 0.3390047366820738 0  1.487254632568403 0.0703866281621833 0  0.155004430757041 0.2369517702015699 0  0.1725545045705267 0.2519594403466565 0  0.1445581653510352 0.2167994984574706 0  0.1420710285613199 0.1942747855116325 0  1.461861739291679 0.3471998553985149 0  0.2372128969196007 0.2453440460936858 0  0.1943665918892754 0.2580518465884657 0  0.2452139232912363 0.1629124725160763 0  0.2555786751481889 0.1825885041235872 0  2.14640473333793 0.2790222779730848 0  2.145589594789407 0.1282024626544199 0  0.1486651579751984 0.1726583296292201 0  0.550000000001476 0.3603327897285098 0  0.0505668771231032 0.3660023622363767 0  1.049999999997169 0.05217028468202135 0  1.244771793631775 0.05744029386223062 0  0.1356759337238615 0.1094447816941579 0  0.5872326411628903 0.2223148728195226 0  0.2168458206248643 0.2558159203714847 0  1.749999999998732 0.05166028789524129 0  0.2855257256666041 0.1763246086558152 0  1.92
[...]
<PointData  Vectors="f_22"> 
<DataArray  type="Float64"  Name="f_22"  NumberOfComponents="3" format="ascii">0.0000000000000000e+00 0.0000000000000000e+00 0.0000000000000000e+00  0.0000000000000000e+00 0.0000000000000000e+00 0.0000000000000000e+00  0.0000000000000000e+00 0.0000000000000000e+00 0.0000000000000000e+00  0.0000000000000000e+00 0.0000000000000000e+00 0.0000000000000000e+00  0.0000000000000000e+00 0.0000000000000000e+00 0.0000000000000000e+00  0.0000000000000000e+00 0.0000000000000000e+00 0.0000000000000000e+00  0.0000000000000000e+00 0.0000000000000000e+00 0.0000000000000000e+00  0.0000000000000000e+00 0.0000000000000000e+00 0.0000000000000000e+00  0.0000000000000000e+00 0.0000000000000000e+00 0.0000000000000000e+00  0.0000000000000000e+00 0.0000000000000000e+00 0.0000000000000000e+00  0.0000000000000000e+00 0.0000000000000000e+00 0.0000000000000000e+00  0.0000000000000000e+00 0.0000000000000000e+00 0.0000000000000000e+00  0.0000000000000000e+00 0.0000000000000000e+00 0.0000000000000000e+00  0.0000000000000000e+00 0.0000000000000000e+00 0.0000000000000000e+00  0.0000000000000000e+00 0.0000000000000000e+00 0.0000000000000000e+00  0.0000000000000000e+00 0.0000000000000000e+00 0.0000000000000000e+00  0.0000000000000000e+00 0.0000000000000000e+00 0.0000000000000000e+00  0.0000000000000000e+00 0.0000000000000000e+00 0.0000000000000000e+00  0.0000000000000000e+00 0.0000000000000000e+00 0.0000000000000000e+00  0.0000000000000000e+00 0.0000000000000000e+00 0.0000000000000000e+00  0.0000000000000000e+00 0.0000000000000000e+00 0.0000000000000000e+00  0.0000000000000000e+00 0.0000000000000000e+00 0.0000000000000000e+00  0.0000000000000000e+00 0.0000000000000000e+00 0.0000000000000000e+00  0.0000000000000000e+00 0.0000000000000000e+00 0.0000000000000000e+00  0.0000000000000000e+00 0.0000000000000000e+00 0.0000000000000000e+00  0.0000000000000000e+00 0.0000000000000000e+00 0.0000000000000000e+00  0.0000000000000000e+00 0.0000000000000000e+00 0.0000000000000000e+00  0.0000000000000000e+00 0.0000000000000000e+00 0.0000000000000000e+00  0.0000000000000000e+00 0.0000000000000000e+00 0.0000000000000000e+00  0.0000000000000000e+00 0.0000000000000000e+00 0.0000000000000000e+00  0.0000000000000000e+00 0.0000000000000000e+00 0.0000000000000000e+00  0.0000000000000000e+00 0.0000000000000000e+00 0.0000000000000000e+00  0.0000000000000000e+00 0.0000000000000000e+00 0.0000000000000000e+00  0.0000000000000000e+00 0.0000000000000000e+00 0.0000000000000000e+00  0.0000000000000000e+00 0.0000000000000000e+00 0.0000000000000000e+00  0.0000000000000000e+00 0.0000000000000000e+00 0.0000000000000000e+00  0.0000000000000000e+00 0.0000000000000000e+00 0.0000000000000000e+00  0.0000000000000000e+00 0.0000000000000000e+00 0.0000000000000000e+00  0.0000000000000000e+00 0.0000000000000000e+00 0.0000000000000000e+00  0.0000000000000000e+00 0.0000000000000000e+00 0.0000000000000000e+00  0.0000000000000000e+00 0.0000000000000000e+00 0.0000000000000000e+00  0.0000000000000000e+00 0.0000000000000000e+00 0.0000000000000000e+00  0.0000000000000000e+00 0.0000000000000000e+00 0.0000000000000000e+00  0.0000000000000000e+00 0.0000000000000000e+00 0.0000000000000000e+00  0.0000000000000000e+00 0.0000000000000000e+00 0.0000000000000000e+00  0.0000000000000000e+00 0.0000000000000000e+00 0.0000000000000000e+00  0.0000000000000000e+00 0.0000000000000000e+00 0.0000000000000000e+00  0.0000000000000000e+00 0.0000000000000000e+00 0.0000000000000000e+00  0.0000000000000000e+00 0.0000000000000000e+00 0.0000000000000000e+00  0.0000000000000000e+00 0.0000000000000000e+00 0.0000000000000000e+00  0.0000000000000000e+00 0.0000000000000000e+00 0.0000000000000000e+00  0.0000000000000000e+00 0.0000000000000000e+00 0.0000000000000000e+00  0.0000000000000000e+00 0.0000000000000000e+00 0.0000000000000000e+00  0.0000000000000000e+00 0.0000000000000000e+00 0.0000000000000000e+00  0.0000000000000000e+00 0.0000000000000000e+00 0.0000000000000000e+00  0.0000000000000000e+00 0.0000000000000000e+00 0.0000000000000000e+00  0.0000000000000000e+00 0.0000000000000000e+00 0.0000000000000000e+00  1.1246491331787853e+00 -1.3519973657202157e-04 0.0000000000000000e+00  1.2092247348600447e+00 -1.4435439812762450e-04 0.0000000000000000e+00  1.2092062680190523e+00 -6.8435621298215747e-05 0.0000000000000000e+00  1.1248770710497560e+00 -1.1545484680347818e-04 0.0000000000000000e+00  0.0000000000000000e+00 0.0000000000000000e+00 0.0000000000000000e+00  0.0000000000000000e+00 0.0000000000000000e+00 0.0000000000000000e+00  0.0000000000000000e+00 0.0000000000000000e+00 0.0000000000000000e+00  0.0000000000000000e+00 0.0000000000000000e+00 0.0000000000000000e+00  0.0000000000000000e+00 0.0000000000000000e+00 0.0000000000000000e+00  0.0000000000000000e+00 0.0000000000000000e+00 0.0000000000000000e+00  0.0000000000000000e+00 0.0000000000000000e+00 0.0000000000000000e+00  0.0000000000000000e+00 0.0000000000000000e+00 0.0000000000000000e+00  0.0000000000000000e+00 0.0000000000000000e+00 0.0000000000000000e+00  0.0000000000000000e+00 0.0000000000000000e+00 0.0000000000000000e+00  0.0000000000000000e+00 0.0000000000000000e+00 0.0000000000000000e+00  0.0000000000000000e+00 0.0000000000000000e+00 0.0000000000000000e+00  0.0000000000000000e+00 0.0000000000000000e+00 0.0000000000000000e+00  0.0000000000000000e+00 0.0000000000000000e+00 0.0000000000000000e+00  0.0000000000000000e+00 0.0000000000000000e+00 0.0000000000000000e+00  0.0000000000000000e+00 0.0000000000000000e+00 0.0000000000000000e+00  0.0000000000000000e+00 0.0000000000000000e+00 0.0000000000000000e+00  0.0000000000000000e+00 0.0000000000000000e+00 0.0000000000000000e+00  0.0000000000000000e+00 0.0000000000000000e+00 0.0000000000000000e+00  0.0000000000000000e+00 0.0000000000000000e+00 0.0000000000000000e+00  0.0000000000000000e+00 0.0000000000000000e+00 0.0000000000000000e+00  9.6000004772211456e-01 0.0000000000000000e+00 0.0000000000000000e+00  1.4400000715844941e+00 0.0000000000000000e+00 0.0000000000000000e+00  1.4400000715870722e+00 0.0000000000000000e+00 0.0000000000000000e+00  9.6000004772575420e-01 0.0000000000000000e+00 0.0000000000000000e+00  -4.4382924515856799e-02 -5.8576747334353002e-02 0.0000000000000000e+00  2.3772485816120825e-01 5.0767623149399775e-02 0.0000000000000000e+00  1.4123597536896959e-01 1.3347302915759379e-01 0.0000000000000000e+00  1.8507100480639616e+00 -7.1578893421385278e-02 0.0000000000000000e+00  1.9681736136354822e+00 1.3510010616940332e-01 0.0000000000000000e+00  1.4683033753544021e+00 2.2953120261846055e-01 0.0000000000000000e+00  1.3150294623060232e+00 3.5770167599579750e-01 0.0000000000000000e+00  1.3311840916636728e+00 2.6024238202173466e-01 0.0000000000000000e+00  1.3056975053381343e+00 -7.2968965003322922e-02 0.0000000000000000e+00  1.2640552721654599e+00 -3.2616389537482904e-01 0.0000000000000000e+00  1.4103731531204131e+00 -3.7742334964330460e-01 0.0000000000000000e+00  -2.5257686626085196e-01 1.3932127380249860e-02 0.0000000000000000e+00  1.2099060683766647e+00 -2.4628845264651223e-05 0.0000000000000000e+00  4.3034829387856403e-02 -8.3079225344504681e-02 0.0000000000000000e+00  -9.4143818883176814e-02 1.2358855812590984e-01 0.0000000000000000e+00  8.1513502674605043e-01 1.9298463880288366e-01 0.0000000000000000e+00  2.2257130237541212e-01 7.0202701148872546e-02 0.0000000000000000e+00  1.8838568214666522e+00 -2.4424290722687494e-01 0.0000000000000000e+00  1.2099954433633839e+00 -7.3446580724291163e-04 0.0000000000000000e+00  1.2095544964911287e+00 -2.9705118058559472e-02 0.0000000000000000e+00  1.3477575237826924e+00 -7.7333623068504984e-02 0.0000000000000000e+00  1.6810858887124274e+00 2.2712672460405467e-01 0.0000000000000000e+00  1.1830894720759426e+00 5.4776751811009709e-02 0.0000000000000000e+00  8.9993285713208082e-01 -6.5531123486680748e-02 0.0000000000000000e+00  1.9906221622041362e+00 4.6056903095495172e-01 0.0000000000000000e+00  1.8582677319521816e+00 6.5556890942502533e-01 0.0000000000000000e+00  1.4899474473158749e+00 7.7971879982553438e-01 0.0000000000000000e+00  1.1455263708815380e+00 5.6365908827094713e-01 0.0000000000000000e+00  9.3855063884777334e-01 1.0662240868167909e-01 0.0000000000000000e+00  9.8356941607706405e-01 -3.9759261204839508e-01 0.0000000000000000e+00  1.2894642867223836e+00 -7.0023463148833887e-01 0.0000000000000000e+00  1.6478204102821732e+00 -7.2009790824239195e-01 0.0000000000000000e+00  1.9052072070508816e+00 -5.3160395670371219e-01 0.0000000000000000e+00  1.2097812199094429e+00 -1.8188596969122761e-06 0.0000000000000000e+00  1.4785374841063625e+00 -2.6157190294016679e-02 0.0000000000000000e+00  1.2100979836624202e+00 -5.8835346861978747e-03 0.0000000000000000e+00  -1.4298022776456787e-01 -1.9246511960331190e-02 0.0000000000000000e+00  1.8263903505510237e+00 1.8949377870171802e-01 0.0000000000000000e+00  1.6455567536035001e+00 -3.0471286545558035e-01 0.0000000000000000e+00  1.8962444191560710e+00 -1.0065624900581785e-01 0.0000000000000000e+00  1.2025650885523274e+00 -7.7035751275965697e-05 0.0000000000000000e+00  1.2053728024047718e+00 -6.9002864272304699e-05 0.0000000000000000e+00  -8.4671110705595187e-02 1.1865648118115731e-01 0.0000000000000000e+00  1.6716379076599304e+00 -1.3024479906496758e-01 0.0000000000000000e+00  1.2009180185953128e+00 -2.8017524011718256e-04 0.0000000000000000e+00  1.2474202691157756e+00 -4.4606518418207189e-02 0.0000000000000000e+00  1.4691647560665504e+00 -2.0511888647827548e-02 0.0000000000000000e+00  1.2005727861845856e+00 -2.9191499912596401e-05 0.0000000000000000e+00  1.2052094247275920e+00 -3.5011978959278260e-07 0.0000000000000000e+00  -8.4877391191698778e-02 -9.3819452924643873e-02 0.0000000000000000e+00  1.2993870769018214e+00 5.4846790267853371e-03 0.0000000000000000e+00  1.2893485522923107e+00 1.1720532884343786e-01 0.0000000000000000e+00  1.0781632589696308e+00 1.7173695661359942e-01 0.0000000000000000e+00  6.6634801830475476e-01 6.0481485333005680e-02 0.0000000000000000e+00  1.7380823623832145e+00 8.6522530365059047e-01 0.0000000000000000e+00  1.2319849369492641e+00 9.4719914388225579e-01 0.0000000000000000e+00  7.5915306796104209e-01 5.1485896099573958e-01 0.0000000000000000e+00  6.4462200247179680e-01 -1.9421330315748456e-01 0.0000000000000000e+00  1.9974798531487337e+00 6.0825262371918709e-01 0.0000000000000000e+00  1.9117324084566789e+00 -3.0664846079561781e-01 0.0000000000000000e+00  1.4378713277456381e+00 2.2049336854238052e-01 0.0000000000000000e+00  9.6352231559373247e-01 -7.9757380454040872e-01 0.0000000000000000e+00  1.4445998890729277e+00 -6.2012064618172588e-02 0.0000000000000000e+00  1.1899032275852326e+00 3.7284039312343864e-03 0.0000000000000000e+00  1.1986069033646425e+00 8.7003106907874243e-05 0.0000000000000000e+00  1.1814542640622567e+00 -2.6212899008804892e-05 0.0000000000000000e+00  2.2459432059099679e-01 5.0168391732352387e-02 0.0000000000000000e+00  -6.1632145924385338e-02 1.1721719654925916e-01 0.0000000000000000e+00  -6.3548067551605261e-02 4.8337451807992066e-02 0.0000000000000000e+00  1.8370139550709561e+00 -2.9459388949428594e-01 0.0000000000000000e+00  1.8406205070205908e+00 5.5880623474914085e-02 0.0000000000000000e+00  4.6834309123859510e-04 -8.5780374344391105e-02 0.0000000000000000e+00  1.5092337911723450e+00 -1.0422984645225624e+00 0.0000000000000000e+00  1.4639645358909603e+00 -8.4852160215744696e-02 0.0000000000000000e+00  3.8265785894007820e-01 7.8510961474687960e-02 0.0000000000000000e+00  1.6639326684068401e+00 3.7134013554881595e-01 0.0000000000000000e+00  1.3962198612166434e+00 -5.6685654812622228e-02 0.0000000000000000e+00  1.1931096933843754e+00 -1.0901433976094616e-03 0.0000000000000000e+00  1.1929181447254797e+00 1.3352435532628193e-02 0.0000000000000000e+00  1.1754718391339440e+00 -2.3267286342231735e-04 0.0000000000000000e+00  4.2831205135005035e-01 -3.4947534993733015e-02 0.0000000000000000e+00  1.7015785634220399e+00 -3.4300660051256776e-01 0.0000000000000000e+00  -6.3510041819883248e-02 -1.1112631777761994e-01 0.0000000000000000e+00  1.5052511727626356e+00 1.1171038620351796e+00 0.0000000000000000e+00  -4.9935259205834706e-02 -3.6842550947750748e-02 0.0000000000000000e+00  1.8645449197521720e+00 7.7296296305653123e-01 0.0000000000000000e+00  8.4024929839508078e-01 9.2480538879489238e-01 0.0000000000000000e+00  4.2932938375911767e-01 2.0133170541465178e-01 0.0000000000000000e+00  1.2470847103254157e+00 5.2809302416940464e-02 0.0000000000000000e+00  1.2099426718136503e+00 -8.2689294004415872e-05 0.0000000000000000e+00  1.3298361143080693e+00 9.2422152952737063e-02 0.0000000000000000e+00  1.3428729533846067e+00 2.5145710172558466e-01 0.0000000000000000e+00  -5.7618825495500438e-02 7.9939243952009131e-02 0.0000000000000000e+00  5.9397000785029319e-01 -6.2732820725391758e-01 0.0000000000000000e+00  1.0328355019761157e+00 -7.8559477408202377e-02 0.0000000000000000e+00  1.9358925786563599e+00 -8.0091267796085841e-01 0.0000000000000000e+00  1.1709938883779867e+00 -7.2772757507746173e-05 0.0000000000000000e+00  2.5974029009453653e-01 3.3254884673430719e-02 0.0000000000000000e+00  -4.8329023577083635e-01 1.3013263922780560e-01 0.0000000000000000e+00  1.1191380625600553e+00 -5.1817434068374302e-02 0.0000000000000000e+00  1.1614914963973946e+00 -1.0860985367779408e+00 0.0000000000000000e+00  1.3194934958594069e+00 -1.3665919693478965e-01 0.0000000000000000e+00  8.8433388109449873e-01 -1.1316815605970768e-01 0.0000000000000000e+00  1.1582877002921763e+00 -1.8824373715512602e-02 0.0000000000000000e+00  7.0534292582669089e-01 -5.9930099824910932e-02 0.0000000000000000e+00  4.1547718822717633e-03 -5.7195774489801392e-02 0.0000000000000000e+00  1.4269933064609865e+00 9.1103591501181844e-02 0.0000000000000000e+00  1.7857297422067253e+00 -5.1506985488347989e-01 0.0000000000000000e+00  9.9526214210226460e-01 7.6267954400303706e-02 0.0000000000000000e+00  1.7660628955638571e+00 -9.9969128176726829e-01 0.0000000000000000e+00  1.1155290181654032e+00 8.5762279665001982e-05 0.0000000000000000e+00  1.5842722229349273e+00 2.2693296228806226e-02 0.0000000000000000e+00  7.9634021570114089e-01 1.0731811692549630e-01 0.0000000000000000e+00  1.4137803428793909e+00 8.6870912056419655e-02 0.0000000000000000e+00  1.0364793329359074e+00 1.6828505998826504e-01 0.0000000000000000e+00  -1.7645718516355391e-01 7.2965287914208976e-02 0.0000000000000000e+00  1.1204365798527427e+00 -3.8921728347872944e-06 0.0000000000000000e+00  1.3616887889922056e+00 4.3972348765221830e-01 0.0000000000000000e+00  1.3424395942836393e+00 -7.9951277515926636e-02 0.0000000000000000e+00  1.2700523329611573e+00 1.6605433741087136e-01 0.0000000000000000e+00  1.2101299852655483e+00 -2.0635609097290964e-04 0.0000000000000000e+00  1.3034534499883497e+00 1.1555311838206252e-01 0.0000000000000000e+00  1.7293594792709517e+00 2.8215162845264602e-01 0.0000000000000000e+00  1.0602311659952750e+00 -3.8968176327409614e-02 0.0000000000000000e+00  1.8779317249976810e+00 2.3947549460499387e-02 0.0000000000000000e+00  -4.3802207284543988e-02 8.8069071164671067e-02 0.0000000000000000e+00  1.2100433493650267e+00 1.8708616726406063e-05 0.0000000000000000e+00  1.5777867110905814e+00 4.1846483163568554e-01 0.0000000000000000e+00  1.2018921855788358e+00 -8.8653201511543194e-03 0.0000000000000000e+00  1.3289647571683800e+00 -7.9725354658283329e-02 0.0000000000000000e+00  1.0953157493042247e+00 1.9561936935383107e-05 0.0000000000000000e+00  1.1639347848170256e+00 2.2702493775606916e-02 0.0000000000000000e+00  1.1896734274462042e+00 -2.4645084591252166e-02 0.0000000000000000e+00  1.6845046215826238e+00 3.0801171881879617e-02 0.0000000000000000e+00  -1.9152198262029043e-02 1.2356388701734557e-01 0.0000000000000000e+00  1.2689456851442371e+00 -3.1973467313309240e-01 0.0000000000000000e+00  9.5741712473214247e-01 1.6338345699580942e-01 0.0000000000000000e+00  1.2094127418714176e+00 -2.0400703178498204e-03 0.0000000000000000e+00  1.0794433644363295e+00 3.0446036323932054e-02 0.0000000000000000e+00  9.5426376782596989e-01 -3.8607547835214119e-02 0.0000000000000000e+00  1.0698176362911958e+00 -1.6243232202339608e-03 0.0000000000000000e+00  1.3758850069653910e+00 -2.1922806916981202e-01 0.0000000000000000e+00  1.8976282603865682e+00 2.5008667600420031e-01 0.0000000000000000e+00  8.4706651142947442e-01 1.4208696229990425e-01 0.0000000000000000e+00  1.0621349372794411e+00 -2.3921277480263600e-01 0.0000000000000000e+00  9.5621455665042632e-01 -1.5674499066551287e-01 0.0000000000000000e+00  -4.0364086007717326e-01 8.9362380696657459e-02 0.0000000000000000e+00  -1.9525598215671994e-01 1.2066142908118223e-01 0.0000000000000000e+00  1.0627745360073988e+00 -8.0838002805641300e-05 0.0000000000000000e+00  1.0324614264450895e+00 -1.1888023156950963e-04 0.0000000000000000e+00  2.7483571357344616e-01 -6.9903836637622337e-03 0.0000000000000000e+00  1.4599825503057018e+00 -4.9410627543075875e-02 0.0000000000000000e+00  7.2149601183965062e-01 -3.9111783093914448e-01 0.0000000000000000e+00  1.0508364340716860e+00 -4.9748738760500879e-05 0.0000000000000000e+00  1.2090951118044271e+00 -1.3555671496991429e-05 0.0000000000000000e+00  9.6512587462597443e-01 -7.1155207404770637e-05 0.0000000000000000e+00  3.7988360856708377e-02 -3.3759784003337331e-02 0.0000000000000000e+00  8.6663283480117104e-01 -6.4784292337120575e-02 0.0000000000000000e+00  1.0664389947940689e+00 1.1515168227275089e-03 0.0000000000000000e+00  1.0890888708174880e+00 1.1338575418707668e+00 0.0000000000000000e+00  1.6487549611775225e+00 9.5677970218984465e-01 0.0000000000000000e+00  4.5022023936786587e-01 6.5151166495737745e-01 0.0000000000000000e+00  3.0443341720874234e-01 -2.4801044265830760e-01 0.0000000000000000e+00  1.0192399796770943e+00 -3.1076528437349424e-03 0.0000000000000000e+00  -3.9613023687152568e-02 5.3001611343902300e-02 0.0000000000000000e+00  1.3709097865725604e+00 3.6755890968766253e-01 0.0000000000000000e+00  -6.2886186090948815e-02 -8.3643696153681585e-02 0.0000000000000000e+00  -4.2433025963117474e-02 -8.2426030134375328e-02 0.0000000000000000e+00  1.2047776226489622e+00 -9.0838541585026690e-05 0.0000000000000000e+00  1.2036880892616839e+00 -1.1741979779516369e-04 0.0000000000000000e+00  7.4308747336609782e-01 -9.8666028010577467e-01 0.0000000000000000e+00  9.9735321924904385e-01 -1.1547930034627618e-01 0.0000000000000000e+00  6.1150948567620944e-01 5.2570307749028510e-02 0.0000000000000000e+00  6.5403785474153164e-01 -4.6260412115305814e-02 0.0000000000000000e+00  9.1867777421746089e-01 -3.1506085919122233e-02 0.0000000000000000e+00  1.3811956712467095e+00 -4.7255512220956120e-01 0.0000000000000000e+00  3.2977300729232145e-01 -2.2691475648095250e-01 0.0000000000000000e+00  4.2242178492790361e-01 3.1243405933303776e-02 0.0000000000000000e+00  9.1011461306291208e-01 2.3132037770091072e-05 0.0000000000000000e+00  -1.2192537900394577e-01 -6.5637952477470854e-02 0.0000000000000000e+00  1.0298805511945499e+00 -1.8638913058859843e-05 0.0000000000000000e+00  1.5463393858131445e+00 1.1070750812594596e-01 0.0000000000000000e+00  9.6187669117914854e-01 -1.5421076308844519e-04 0.0000000000000000e+00  1.7437852712144297e+00 1.6919234305681569e-01 0.0000000000000000e+00  1.4587219170242900e+00 -1.4206433856067072e-02 0.0000000000000000e+00  1.5703258875229593e+00 5.9153580504405923e-01 0.0000000000000000e+00  9.1261238018541402e-01 -5.0913878475096326e-02 0.0000000000000000e+00  1.2087514956264473e+00 -2.8144771961232718e-04 0.0000000000000000e+00  1.2101425493323725e+00 -4.0492742712211786e-04 0.0000000000000000e+00  1.2087199170914349e+00 -5.2449873557586094e-04 0.0000000000000000e+00  1.2094059091377221e+00 -1.2890427808995520e-04 0.0000000000000000e+00  1.1916481957637755e+00 -9.6226395305694086e-05 0.0000000000000000e+00  1.1988115875826177e+00 -7.6934422686001272e-02 0.0000000000000000e+00  1.3916968930958695e+00 -2.2690855700275705e-02 0.0000000000000000e+00  1.2859810589328602e+00 1.2611879955075154e-02 0.0000000000000000e+00  1.2450050289415866e+00 -5.8495862063856763e-02 0.0000000000000000e+00  1.419643493256743