<?xml version="1.0"?>
<VTKFile type="UnstructuredGrid"  version="0.1"  >
<UnstructuredGrid>
<Piece  NumberOfPoints="3852" NumberOfCells="7360">
<Points>
<DataArray  type="Float64"  NumberOfComponents="3"  format="ascii">0 0 0  0 0.41 0  2.2 0.41 0  2.2 0 0  0.2 0.15 0  0.15 0.2 0  0.2 0.25 0  0.25 0.2 0  0.2097545161007899 0.1509607359798352 0  0.219134171618224 0.153806023374423 0  0.2277785116509268 0.1584265193848371 0  0.2353553390592504 0.1646446609405956 0  0.2415734806150793 0.1722214883489481 0  0.2461939766255306 0.1808658283816641 0  0.249039264020151 0.1902454838991403 0  0.2490392640201666 0.2097545161007811 0  0.2461939766255869 0.2191341716182 0  0.2415734806151802 0.2277785116509009 0  0.2353553390594108 0.235355339059244 0  0.2277785116510524 0.2415734806150789 0  0.2191341716182962 0.2461939766255471 0  0.209754516100834 0.2490392640201561 0  0.1902454838992189 0.2490392640201666 0  0.1808658283818 0.2461939766255869 0  0.1722214883490991 0.2415734806151802 0  0.164644660940756 0.2353553390594108 0  0.1584265193849211 0.2277785116510524 0  0.1538060233744529 0.2191341716182962 0  0.150960735979844 0.209754516100834 0  0.1509607359798352 0.1902454838992101 0  0.153806023374423 0.180865828381776 0  0.1584265193848371 0.1722214883490732 0  0.1646446609405956 0.1646446609407496 0  0.1722214883489481 0.1584265193849207 0  0.1808658283816641 0.1538060233744694 0  0.1902454838991403 0.150960735979849 0  0.09999999999980318 0 0  0.1999999999996354 0 0  0.2999999999994593 0 0  0.3999999999991452 0 0  0.4999999999988309 0 0  0.599999999998495 0 0  0.6999999999982023 0 0  0.7999999999979096 0 0  0.8999999999975735 0 0  0.9999999999972848 0 0  1.099999999997053 0 0  1.199999999997309 0 0  1.299999999997566 0 0  1.399999999997821 0 0  1.49999999999809 0 0  1.599999999998377 0 0  1.69999999999859 0 0  1.799999999998877 0 0  1.899999999999145 0 0  1.999999999999386 0 0  2.099999999999693 0 0  2.2 0.08199999999981657 0  2.2 0.1639999999995688 0  2.2 0.2459999999995603 0  2.2 0.327999999999785 0  2.100000000000048 0.41 0  2.000000000000269 0.41 0  1.900000000000422 0.41 0  1.800000000000679 0.41 0  1.700000000000931 0.41 0  1.600000000001326 0.41 0  1.500000000001665 0.41 0  1.400000000002032 0.41 0  1.300000000002395 0.41 0  1.200000000002644 0.41 0  1.100000000002865 0.41 0  1.000000000002617 0.41 0  0.900000000002368 0.41 0  0.8000000000021192 0.41 0  0.7000000000018587 0.41 0  0.6000000000015786 0.41 0  0.5000000000013736 0.41 0  0.4000000000010933 0.41 0  0.3000000000008329 0.41 0  0.2000000000005997 0.41 0  0.1000000000003003 0.41 0  0 0.3280000000001975 0  0 0.2460000000004372 0  0 0.1640000000004437 0  0 0.08200000000021695 0  0.439039350479032 0.2235433210862024 0  0.3557293424662716 0.1539377961885917 0  0.3450132387946972 0.2399891502764809 0  0.2900756359792848 0.08507884665974728 0  0.2884413411145515 0.3059878288466324 0  0.2102195502178943 0.3385267178242456 0  0.137328909169326 0.3152847369018352 0  0.08490385663776813 0.2628976192695439 0  0.08063302347471875 0.188368977740952 0  0.1005937615311739 0.1162460982751979 0  0.1621860847198582 0.08598327887900903 0  0.3012864586130264 0.1926027915888804 0  1.999140000000448 0.2049999999995642 0  0.2742354912953259 0.1572259708446958 0  0.2871471664627305 0.2264358039321654 0  0.6542851578645765 0.1981889790488746 0  0.2651366296338276 0.2534562504463119 0  0.2371819217149928 0.0977949043027586 0  1.651678197071202 0.2145186615851206 0  1.349674714201118 0.2086119645070391 0  0.9627539291831038 0.2056711800839285 0  0.2360880502985623 0.2733043913425156 0  1.159884231859056 0.2050429640239795 0  0.2502927927237266 0.1358797630898622 0  0.2080582834123368 0.2835355213895352 0  0.1805439632603489 0.278338480667804 0  0.1486243506827335 0.2626014098227327 0  0.1266658889266303 0.2392753516137401 0  0.1179814841582247 0.2069380844236527 0  0.1225167704961566 0.1764957192948648 0  0.1357996569043286 0.1472158045151807 0  0.1619764829264572 0.126298308975886 0  0.1935640279204225 0.116654032325456 0  1.82457000000085 0.2346439024393236 0  0.8027657238591595 0.149277802568535 0  1.498563450727992 0.2632867809910664 0  0.2770405925201826 0.1924926016722167 0  0.470924801584011 0.09138612536042019 0  0.550693598792917 0.2898604497866635 0  0.381089831438127 0.3238078833671811 0  2.074516462495042 0.125705772324225 0  2.083599037046577 0.2769549245607841 0  0.2692296340100125 0.2210592970306522 0  0.7614733075682367 0.2839235561638241 0  1.536698221979284 0.1258192462655419 0  1.231809489345021 0.1282542717942667 0  1.054759157670174 0.1242749934189342 0  1.754535566851005 0.1223197024158991 0  1.90452621597739 0.1324728094649104 0  0.2672409321155211 0.178737994598723 0  1.254401531996246 0.2902808614622134 0  1.04350934597445 0.2986664252663559 0  0.0749710792305778 0.3208721925318313 0  0.5425289614095572 0.165152457827861 0  0.1663208394680799 0.2644065126118989 0  0.1471335176887868 0.2433864007787126 0  0.1345556779484054 0.219852318055334 0  0.131940483167677 0.1932967226753857 0  0.1941574795820069 0.2685534232066453 0  0.2226696214021025 0.1252682734732412 0  0.2193882214552426 0.2661718674478616 0  0.1396865053227576 0.1677617654469802 0  0.8749487631478475 0.295170577255529 0  1.424301820545763 0.1157348858866879 0  1.918515045506933 0.2902236143624367 0  1.744876807925144 0.306628844405037 0  0.2443979144126529 0.254353837216211 0  0.2569054246570621 0.2306780201523878 0  0.2632507216716993 0.2062296523407826 0  0.4609453431326088 0.3138128990490959 0  0.3578015395476809 0.08253318517696946 0  0.2529777826635333 0.155582948480283 0  0.1580369715200277 0.1487041474358234 0  0.652872088668587 0.3101079993636056 0  0.297147332491062 0.2558065812325378 0  0.6188247313471635 0.1101603945467571 0  0.8951149554961688 0.1123812542864208 0  1.592749166085722 0.2985190085719691 0  1.40420309431358 0.2992155383468256 0  1.649189110727275 0.1000387439201274 0  0.2301663900864273 0.1432830242131801 0  0.2064839406544439 0.1345771465164309 0  0.2548204572493643 0.1702022465417566 0  0.1606700828011604 0.2481621709908606 0  0.2605987457303776 0.1928909671966518 0  0.1826942838524941 0.2594610608897559 0  0.1456438338561037 0.2290651013631561 0  0.1387681034994896 0.2058679665896095 0  1.140902260384949 0.3081952438204152 0  2.123402621966431 0.2039515281261525 0  0.7272188829630218 0.1047469619375249 0  0.2060868819369127 0.2616331638469837 0  0.246763614216289 0.2411610007697902 0  0.1405961691450822 0.1819800466423126 0  1.149638048863541 0.08264492713269313 0  0.1809997740285721 0.1365020267363126 0  1.993198408221569 0.09755938404998035 0  0.2287111352430851 0.2547015941619741 0  0.3818716699056283 0.2060398770290832 0  0.39147508084147 0.2656155699545688 0  0.151201080877373 0.1608659990301362 0  0.0542521118046473 0.1382221876243976 0  0.06190301158313444 0.0685934933767465 0  1.317316039400266 0.1015983144534349 0  0.2176417279723976 0.1415790407114221 0  0.2401571300978209 0.1529210337009423 0  0.2618092962776011 0.3566662607419938 0  0.1941527094396574 0.1377969918002053 0  0.9590486261329707 0.3255353063371385 0  0.1708201090411339 0.1447474051814825 0  1.837592370686806 0.3302992722413595 0  0.3197015570210796 0.1212159119695666 0  0.4155281956943757 0.1409543952531078 0  0.0549491513262805 0.2307535706287103 0  0.1668210562270142 0.3605647861782867 0  0.2854688902460447 0.2093700809023571 0  2.013251581901814 0.3292746985146142 0  0.1192191106244758 0.2809901915857802 0  0.2487958366614321 0.04556523514103697 0  0.09061021186838321 0.2240174335271237 0  1.737143840576958 0.20912817770623 0  0.04515017012776967 0.2784708690411318 0  0.5347554646753627 0.08988970780599832 0  0.977104673723579 0.08241628541188413 0  0.336509991617897 0.2888965225844298 0  0.2569238041969055 0.2173711314485607 0  1.906541186051535 0.2125389476829634 0  0.1762338839607841 0.3102437166134606 0  1.449268841077636 0.201011295143529 0  0.8555371485878378 0.2099663446585434 0  1.837208236203613 0.07556229833764837 0  1.264402545318887 0.1992523923163096 0  1.068181074047183 0.2155119107017876 0  0.3158931250274742 0.3421721218291775 0  0.2731958384900449 0.2373435058667565 0  0.09875906484220501 0.1533097574901186 0  0.7355755433976705 0.2066339904079041 0  1.567440499207928 0.2049999999995983 0  1.329829828222916 0.3295825481537897 0  0.8214190147401245 0.07894167681990104 0  1.525459989258997 0.3394220200696043 0  0.1990897327079506 0.06300531675246424 0  0.244701762210989 0.3062404318132603 0  0.1033853772622983 0.3551443431224104 0  0.1178236825374896 0.07148041782551597 0  0.1558198999929474 0.04409380269139784 0  0.3389178979413869 0.198678920661321 0  0.310790717645908 0.2196004930752872 0  2.125022007676643 0.3402049371791425 0  2.130028889485561 0.06535501282233655 0  0.4821161335597635 0.1626909543876269 0  0.2838678108956019 0.1254276466262967 0  0.5062815929260498 0.2376271077316994 0  1.663059277092996 0.3422301118688678 0  1.82292665764828 0.1574809263836269 0  2.052538557905295 0.05717536030732174 0  0.3078251537889645 0.16056368457456 0  0.8108267070172145 0.3390047366820738 0  1.487254632568403 0.0703866281621833 0  0.155004430757041 0.2369517702015699 0  0.1725545045705267 0.2519594403466565 0  0.1445581653510352 0.2167994984574706 0  0.1420710285613199 0.1942747855116325 0  1.461861739291679 0.3471998553985149 0  0.2372128969196007 0.2453440460936858 0  0.1943665918892754 0.2580518465884657 0  0.2452139232912363 0.1629124725160763 0  0.2555786751481889 0.1825885041235872 0  2.14640473333793 0.2790222779730848 0  2.145589594789407 0.1282024626544199 0  0.1486651579751984 0.1726583296292201 0  0.550000000001476 0.3603327897285098 0  0.0505668771231032 0.3660023622363767 0  1.049999999997169 0.05217028468202135 0  1.244771793631775 0.05744029386223062 0  0.1356759337238615 0.1094447816941579 0  0.5872326411628903 0.2223148728195226 0  0.2168458206248643 0.2558159203714847 0  1.749999999998732 0.05166028789524129 0  0.2855257256666041 0.1763246086558152 0  1.92
[...]
<PointData  Vectors="f_22"> 
<DataArray  type="Float64"  Name="f_22"  NumberOfComponents="3" format="ascii">0.0000000000000000e+00 0.0000000000000000e+00 0.0000000000000000e+00  0.0000000000000000e+00 0.0000000000000000e+00 0.0000000000000000e+00  0.0000000000000000e+00 0.0000000000000000e+00 0.0000000000000000e+00  0.0000000000000000e+00 0.0000000000000000e+00 0.0000000000000000e+00  0.0000000000000000e+00 0.0000000000000000e+00 0.0000000000000000e+00  0.0000000000000000e+00 0.0000000000000000e+00 0.0000000000000000e+00  0.0000000000000000e+00 0.0000000000000000e+00 0.0000000000000000e+00  0.0000000000000000e+00 0.0000000000000000e+00 0.0000000000000000e+00  0.0000000000000000e+00 0.0000000000000000e+00 0.0000000000000000e+00  0.0000000000000000e+00 0.0000000000000000e+00 0.0000000000000000e+00  0.0000000000000000e+00 0.0000000000000000e+00 0.0000000000000000e+00  0.0000000000000000e+00 0.0000000000000000e+00 0.0000000000000000e+00  0.0000000000000000e+00 0.0000000000000000e+00 0.0000000000000000e+00  0.0000000000000000e+00 0.0000000000000000e+00 0.0000000000000000e+00  0.0000000000000000e+00 0.0000000000000000e+00 0.0000000000000000e+00  0.0000000000000000e+00 0.0000000000000000e+00 0.0000000000000000e+00  0.0000000000000000e+00 0.0000000000000000e+00 0.0000000000000000e+00  0.0000000000000000e+00 0.0000000000000000e+00 0.0000000000000000e+00  0.0000000000000000e+00 0.0000000000000000e+00 0.0000000000000000e+00  0.0000000000000000e+00 0.0000000000000000e+00 0.0000000000000000e+00  0.0000000000000000e+00 0.0000000000000000e+00 0.0000000000000000e+00  0.0000000000000000e+00 0.0000000000000000e+00 0.0000000000000000e+00  0.0000000000000000e+00 0.0000000000000000e+00 0.0000000000000000e+00  0.0000000000000000e+00 0.0000000000000000e+00 0.0000000000000000e+00  0.0000000000000000e+00 0.0000000000000000e+00 0.0000000000000000e+00  0.0000000000000000e+00 0.0000000000000000e+00 0.0000000000000000e+00  0.0000000000000000e+00 0.0000000000000000e+00 0.0000000000000000e+00  0.0000000000000000e+00 0.0000000000000000e+00 0.0000000000000000e+00  0.0000000000000000e+00 0.0000000000000000e+00 0.0000000000000000e+00  0.0000000000000000e+00 0.0000000000000000e+00 0.0000000000000000e+00  0.0000000000000000e+00 0.0000000000000000e+00 0.0000000000000000e+00  0.0000000000000000e+00 0.0000000000000000e+00 0.0000000000000000e+00  0.0000000000000000e+00 0.0000000000000000e+00 0.0000000000000000e+00  0.0000000000000000e+00 0.0000000000000000e+00 0.0000000000000000e+00  0.0000000000000000e+00 0.0000000000000000e+00 0.0000000000000000e+00  0.0000000000000000e+00 0.0000000000000000e+00 0.0000000000000000e+00  0.0000000000000000e+00 0.0000000000000000e+00 0.0000000000000000e+00  0.0000000000000000e+00 0.0000000000000000e+00 0.0000000000000000e+00  0.0000000000000000e+00 0.0000000000000000e+00 0.0000000000000000e+00  0.0000000000000000e+00 0.0000000000000000e+00 0.0000000000000000e+00  0.0000000000000000e+00 0.0000000000000000e+00 0.0000000000000000e+00  0.0000000000000000e+00 0.0000000000000000e+00 0.0000000000000000e+00  0.0000000000000000e+00 0.0000000000000000e+00 0.0000000000000000e+00  0.0000000000000000e+00 0.0000000000000000e+00 0.0000000000000000e+00  0.0000000000000000e+00 0.0000000000000000e+00 0.0000000000000000e+00  0.0000000000000000e+00 0.0000000000000000e+00 0.0000000000000000e+00  0.0000000000000000e+00 0.0000000000000000e+00 0.0000000000000000e+00  0.0000000000000000e+00 0.0000000000000000e+00 0.0000000000000000e+00  0.0000000000000000e+00 0.0000000000000000e+00 0.0000000000000000e+00  0.0000000000000000e+00 0.0000000000000000e+00 0.0000000000000000e+00  0.0000000000000000e+00 0.0000000000000000e+00 0.0000000000000000e+00  0.0000000000000000e+00 0.0000000000000000e+00 0.0000000000000000e+00  0.0000000000000000e+00 0.0000000000000000e+00 0.0000000000000000e+00  0.0000000000000000e+00 0.0000000000000000e+00 0.0000000000000000e+00  0.0000000000000000e+00 0.0000000000000000e+00 0.0000000000000000e+00  0.0000000000000000e+00 0.0000000000000000e+00 0.0000000000000000e+00  0.0000000000000000e+00 0.0000000000000000e+00 0.0000000000000000e+00  1.0894510232450267e+00 -1.1831489964028905e-03 0.0000000000000000e+00  1.2594057849518381e+00 -8.3501672365126969e-03 0.0000000000000000e+00  1.2762540700806946e+00 -9.8786467805892699e-03 0.0000000000000000e+00  1.0957275375003008e+00 -2.4265611455455151e-03 0.0000000000000000e+00  0.0000000000000000e+00 0.0000000000000000e+00 0.0000000000000000e+00  0.0000000000000000e+00 0.0000000000000000e+00 0.0000000000000000e+00  0.0000000000000000e+00 0.0000000000000000e+00 0.0000000000000000e+00  0.0000000000000000e+00 0.0000000000000000e+00 0.0000000000000000e+00  0.0000000000000000e+00 0.0000000000000000e+00 0.0000000000000000e+00  0.0000000000000000e+00 0.0000000000000000e+00 0.0000000000000000e+00  0.0000000000000000e+00 0.0000000000000000e+00 0.0000000000000000e+00  0.0000000000000000e+00 0.0000000000000000e+00 0.0000000000000000e+00  0.0000000000000000e+00 0.0000000000000000e+00 0.0000000000000000e+00  0.0000000000000000e+00 0.0000000000000000e+00 0.0000000000000000e+00  0.0000000000000000e+00 0.0000000000000000e+00 0.0000000000000000e+00  0.0000000000000000e+00 0.0000000000000000e+00 0.0000000000000000e+00  0.0000000000000000e+00 0.0000000000000000e+00 0.0000000000000000e+00  0.0000000000000000e+00 0.0000000000000000e+00 0.0000000000000000e+00  0.0000000000000000e+00 0.0000000000000000e+00 0.0000000000000000e+00  0.0000000000000000e+00 0.0000000000000000e+00 0.0000000000000000e+00  0.0000000000000000e+00 0.0000000000000000e+00 0.0000000000000000e+00  0.0000000000000000e+00 0.0000000000000000e+00 0.0000000000000000e+00  0.0000000000000000e+00 0.0000000000000000e+00 0.0000000000000000e+00  0.0000000000000000e+00 0.0000000000000000e+00 0.0000000000000000e+00  0.0000000000000000e+00 0.0000000000000000e+00 0.0000000000000000e+00  9.6000005075174333e-01 0.0000000000000000e+00 0.0000000000000000e+00  1.4400000761289371e+00 0.0000000000000000e+00 0.0000000000000000e+00  1.4400000761315157e+00 0.0000000000000000e+00 0.0000000000000000e+00  9.6000005075538286e-01 0.0000000000000000e+00 0.0000000000000000e+00  3.1533535115403709e-02 -7.2513655898609297e-01 0.0000000000000000e+00  1.4145887614364711e-01 -2.1717546285842708e-02 0.0000000000000000e+00  3.4071694711098932e-01 4.2090947874895063e-02 0.0000000000000000e+00  1.8101527668508661e+00 -6.9004300140100908e-02 0.0000000000000000e+00  1.9817266401980549e+00 5.6218793392668491e-02 0.0000000000000000e+00  1.4739159817660967e+00 2.0967512941294159e-01 0.0000000000000000e+00  1.3257955633121543e+00 3.6018079323924962e-01 0.0000000000000000e+00  1.3364549621856925e+00 2.7309449998450797e-01 0.0000000000000000e+00  1.3053295207778624e+00 -5.5289412133029306e-02 0.0000000000000000e+00  1.2579530283301705e+00 -3.1172722786559309e-01 0.0000000000000000e+00  1.3960596708724480e+00 -3.6687956440825742e-01 0.0000000000000000e+00  -2.3473312909236074e-01 1.2762197364266492e-01 0.0000000000000000e+00  1.2419396633224360e+00 3.8222201419155305e-02 0.0000000000000000e+00  -2.9895371599154329e-03 8.1547438862769033e-03 0.0000000000000000e+00  -4.2819793832135279e-02 2.1195806570737513e-01 0.0000000000000000e+00  7.6942216000879182e-01 6.9912061943446491e-01 0.0000000000000000e+00  3.0071046881988317e-01 9.7166252088722663e-02 0.0000000000000000e+00  1.8625673311969897e+00 -2.3171474907042167e-01 0.0000000000000000e+00  1.2871816983312259e+00 1.3387501806757679e-01 0.0000000000000000e+00  1.5077606851374168e+00 3.8903719151562578e-02 0.0000000000000000e+00  1.6020956756591347e+00 5.5954138612103688e-01 0.0000000000000000e+00  1.7715642664908657e+00 2.0787345281087510e-01 0.0000000000000000e+00  1.5186788220619758e+00 1.0295220907034069e-01 0.0000000000000000e+00  9.1031023651644682e-01 -4.2043967471916042e-02 0.0000000000000000e+00  2.0239422800083666e+00 4.3974758814782311e-01 0.0000000000000000e+00  1.8881970908705201e+00 6.5224886720647113e-01 0.0000000000000000e+00  1.5109835273759351e+00 7.9351793907068735e-01 0.0000000000000000e+00  1.1571558885192843e+00 5.8540785880775514e-01 0.0000000000000000e+00  9.4138476247936231e-01 1.3192451524216128e-01 0.0000000000000000e+00  9.7896246853670466e-01 -3.7300027455570289e-01 0.0000000000000000e+00  1.2791604136232286e+00 -6.8013951316745302e-01 0.0000000000000000e+00  1.6339478120759212e+00 -7.0567097610469387e-01 0.0000000000000000e+00  1.8904514604679616e+00 -5.2063287170595085e-01 0.0000000000000000e+00  1.2816157465867870e+00 -3.1453592805964388e-02 0.0000000000000000e+00  1.1162266716387330e+00 -4.1570733563703283e-01 0.0000000000000000e+00  1.2388995361959272e+00 4.2483108642174451e-02 0.0000000000000000e+00  -1.3309753973801805e-01 1.0865774630581408e-01 0.0000000000000000e+00  1.9335665077520976e+00 3.0719530665106282e-01 0.0000000000000000e+00  1.2058417303801539e+00 1.8847887500071747e-01 0.0000000000000000e+00  1.7173577867186485e+00 -2.1845664389849764e-01 0.0000000000000000e+00  1.2197199135836279e+00 2.7272666919510441e-03 0.0000000000000000e+00  1.2830491678572282e+00 -9.6618267810419604e-03 0.0000000000000000e+00  -6.7921084316312913e-02 2.1767137126742528e-01 0.0000000000000000e+00  1.6104811542129620e+00 -4.3319407959366985e-01 0.0000000000000000e+00  1.2989754073929167e+00 -8.5606713820454067e-02 0.0000000000000000e+00  1.1351815585920302e+00 -9.5218368675481863e-02 0.0000000000000000e+00  1.1384699041697812e+00 -1.2848555659000668e-01 0.0000000000000000e+00  1.1796317963448986e+00 -4.0431302977640818e-02 0.0000000000000000e+00  1.2884370846645279e+00 1.0683719876479380e-02 0.0000000000000000e+00  -8.9622151085553131e-02 2.6968735359106419e-02 0.0000000000000000e+00  1.1887921168662758e+00 -3.9225978693928215e-03 0.0000000000000000e+00  1.2672842961291271e+00 4.3565237010258787e-02 0.0000000000000000e+00  1.0814163919107331e+00 1.7730485815596672e-01 0.0000000000000000e+00  1.4517691182863639e+00 7.8291913422534465e-01 0.0000000000000000e+00  1.7670275182152386e+00 8.7415412888014909e-01 0.0000000000000000e+00  1.2515514451215473e+00 9.6940257456980850e-01 0.0000000000000000e+00  7.6788720690823753e-01 5.4283255935312313e-01 0.0000000000000000e+00  6.4313064379683071e-01 -1.6559341479765066e-01 0.0000000000000000e+00  2.0429247592017057e+00 6.0298364970585394e-01 0.0000000000000000e+00  1.9027767824814821e+00 -2.9487260316731140e-01 0.0000000000000000e+00  1.5209745065957945e+00 2.1232985049440359e-01 0.0000000000000000e+00  9.5381521657149970e-01 -7.7302960470979076e-01 0.0000000000000000e+00  1.0414210451896520e+00 1.1983337452734598e-01 0.0000000000000000e+00  1.4008677203900270e+00 -1.4512317364438229e-03 0.0000000000000000e+00  1.2497888859996185e+00 -6.3573331209129356e-03 0.0000000000000000e+00  1.1961228836831295e+00 4.2804880559745899e-02 0.0000000000000000e+00  2.6929541423084291e-01 5.4100846644040475e-02 0.0000000000000000e+00  -6.1015817255553585e-02 1.8394648699708580e-01 0.0000000000000000e+00  -5.7814856356053580e-02 1.7203509043643608e-01 0.0000000000000000e+00  1.4709782718263356e+00 -1.7367629194764811e-01 0.0000000000000000e+00  1.8161418579217956e+00 1.1301557910358431e-02 0.0000000000000000e+00  -1.0997072498509729e-03 -3.8462027688427311e-02 0.0000000000000000e+00  1.4945802734780016e+00 -1.0245695953740634e+00 0.0000000000000000e+00  1.8790907991537165e+00 -2.4046908676642051e-01 0.0000000000000000e+00  5.5895856826211265e-01 1.0025855895012485e-01 0.0000000000000000e+00  1.2522856757976653e+00 2.0351582323383990e-01 0.0000000000000000e+00  1.7249573824908615e+00 3.3008673387821957e-01 0.0000000000000000e+00  1.2883201021220059e+00 7.3273170404448668e-02 0.0000000000000000e+00  1.2505724803143032e+00 -9.4166718267363163e-03 0.0000000000000000e+00  1.1713604227464212e+00 1.7693788884849077e-03 0.0000000000000000e+00  4.4118919055669170e-01 -2.6892476267572175e-02 0.0000000000000000e+00  1.6965872768769661e+00 -3.3598828377549633e-01 0.0000000000000000e+00  -5.8422998118337816e-02 -3.0563215620595285e-02 0.0000000000000000e+00  1.5328562025588885e+00 1.1370638205269712e+00 0.0000000000000000e+00  -3.8710405407651312e-02 9.1520376012086957e-02 0.0000000000000000e+00  1.9089999467325212e+00 7.8123273454688824e-01 0.0000000000000000e+00  8.5548728390489959e-01 9.5286723990728495e-01 0.0000000000000000e+00  4.3278484648328647e-01 2.3233507264400691e-01 0.0000000000000000e+00  1.3027100469530519e+00 -1.4348301770526933e-01 0.0000000000000000e+00  1.2686945190020580e+00 -1.9663069057893532e-02 0.0000000000000000e+00  8.1991830380701725e-01 -1.1607818664096467e-01 0.0000000000000000e+00  1.4107613055454464e+00 2.5082381646620250e-01 0.0000000000000000e+00  -5.6113100500793642e-02 1.0379854454378760e-01 0.0000000000000000e+00  5.8712052262325809e-01 -5.9885214991724012e-01 0.0000000000000000e+00  9.6270225221778993e-01 6.1092283405467775e-02 0.0000000000000000e+00  1.9217031798668200e+00 -7.8995993363310502e-01 0.0000000000000000e+00  1.1668230793212486e+00 3.7767757211737722e-03 0.0000000000000000e+00  2.9673689692794736e-01 3.0695479410534594e-02 0.0000000000000000e+00  -3.6296994045757391e-01 -2.3223941606530321e-01 0.0000000000000000e+00  1.5170766964513032e+00 -4.6890790026165730e-01 0.0000000000000000e+00  1.1479457694527166e+00 -1.0642107096004847e+00 0.0000000000000000e+00  1.3179748447805599e+00 -1.2637443408686552e-01 0.0000000000000000e+00  8.8166227715286571e-01 -1.0686254810258788e-01 0.0000000000000000e+00  1.2529040686699040e+00 -1.2902779923842594e-02 0.0000000000000000e+00  7.1387190555758273e-01 -5.4820167796229252e-02 0.0000000000000000e+00  1.6001531715259192e-02 -4.2710613662712830e-02 0.0000000000000000e+00  1.4058005982953168e+00 5.6847737565843354e-02 0.0000000000000000e+00  1.7774576214048687e+00 -5.0828113501857175e-01 0.0000000000000000e+00  1.0145357500116601e+00 1.2102194041367200e-02 0.0000000000000000e+00  1.7510426841805229e+00 -9.8646341856469200e-01 0.0000000000000000e+00  1.0996153872577714e+00 -2.4057847770548072e-04 0.0000000000000000e+00  1.4848514090457867e+00 3.2669566852825807e-02 0.0000000000000000e+00  8.4332562358038288e-01 -1.5485766620737199e-01 0.0000000000000000e+00  1.4152559929944803e+00 9.7996133499707108e-02 0.0000000000000000e+00  1.0417891274489963e+00 1.6317604412292347e-01 0.0000000000000000e+00  -1.4204329457432432e-01 1.8508861470724627e-01 0.0000000000000000e+00  1.0939330230883721e+00 -1.6886056136815379e-04 0.0000000000000000e+00  1.3729320574545727e+00 4.5059067609438358e-01 0.0000000000000000e+00  1.3155871950961882e+00 -7.7166006025612244e-02 0.0000000000000000e+00  1.2737350445435325e+00 1.8456729262349975e-01 0.0000000000000000e+00  1.3211574438578499e+00 -5.0326767633270576e-02 0.0000000000000000e+00  1.3049331952088392e+00 1.2189471446778338e-01 0.0000000000000000e+00  1.6332806409213556e+00 4.4641684013332100e-01 0.0000000000000000e+00  8.8620493078440543e-01 6.6965212287607268e-02 0.0000000000000000e+00  2.0277861090324163e+00 -1.4495634548333169e-01 0.0000000000000000e+00  -5.1908689499039540e-02 1.7766775326953421e-01 0.0000000000000000e+00  1.2182485368099547e+00 -8.8574542050659476e-03 0.0000000000000000e+00  1.5944838428714576e+00 4.1095901196094597e-01 0.0000000000000000e+00  1.4292839182075530e+00 -5.8120437764897719e-02 0.0000000000000000e+00  1.3318540678178019e+00 -2.4802389232957769e-01 0.0000000000000000e+00  1.0415298542775593e+00 -1.1011087277238108e-02 0.0000000000000000e+00  1.7356227067778487e+00 -2.4778476537159597e-01 0.0000000000000000e+00  1.5294957488306606e+00 1.0660234769800686e-01 0.0000000000000000e+00  1.6269209670916105e+00 -4.3622427542054885e-02 0.0000000000000000e+00  2.6477142329390656e-02 1.9224749341354827e-01 0.0000000000000000e+00  1.2644354969856373e+00 -3.0111152727081553e-01 0.0000000000000000e+00  1.3785189772420485e+00 -6.5032019111587824e-01 0.0000000000000000e+00  1.4114480693440428e+00 8.1120150495070653e-02 0.0000000000000000e+00  9.2820236348131846e-01 4.8954453198353773e-02 0.0000000000000000e+00  1.3235265290814981e+00 6.0817342475709427e-02 0.0000000000000000e+00  8.6889288004640941e-01 4.0968661293325187e-02 0.0000000000000000e+00  1.3559446568531830e+00 -2.1240301957198243e-01 0.0000000000000000e+00  1.9143889394918354e+00 2.0731622819783416e-01 0.0000000000000000e+00  8.5155744298724856e-01 1.4446348910810056e-01 0.0000000000000000e+00  1.0531714709276925e+00 -2.2980122059448171e-01 0.0000000000000000e+00  9.4080213151603242e-01 -1.5147267907370110e-01 0.0000000000000000e+00  -3.4720806520447528e-01 8.5124350773707058e-02 0.0000000000000000e+00  -1.2106798727737908e-01 1.9715275855306247e-01 0.0000000000000000e+00  1.0123018405202873e+00 -1.4038692778108354e-03 0.0000000000000000e+00  9.6672330982151145e-01 -6.6545226629718067e-04 0.0000000000000000e+00  9.9217438973582894e-01 1.5668676263781850e-03 0.0000000000000000e+00  1.4298925759164687e+00 -9.3162261144603409e-03 0.0000000000000000e+00  2.0844793865434731e-02 -3.3958689024044619e-01 0.0000000000000000e+00  9.1163626651645668e-01 4.0721703563542988e-02 0.0000000000000000e+00  1.2235777471182707e+00 -7.6341739373320158e-02 0.0000000000000000e+00  8.8959605312098866e-01 1.1512881810632910e-03 0.0000000000000000e+00  -4.6434547525276246e-02 6.7474091915477666e-02 0.0000000000000000e+00  8.2058238502046910e-01 3.9942177540410649e-02 0.0000000000000000e+00  8.4816328826937493e-01 -5.8681764570652946e-02 0.0000000000000000e+00  1.1107202667293068e+00 1.1594007649755720e+00 0.0000000000000000e+00  1.6849755996455351e+00 9.7328618142856638e-01 0.0000000000000000e+00  4.5961660669988957e-01 6.8221192823251953e-01 0.0000000000000000e+00  3.0213750580976323e-01 -2.1725426497897016e-01 0.0000000000000000e+00  7.5086154638595359e-01 1.1403753464617045e-02 0.0000000000000000e+00  -3.7599916388834052e-02 5.7686811704802499e-02 0.0000000000000000e+00  1.4250764825063906e+00 3.7360536945823875e-01 0.0000000000000000e+00  -5.4487630078111429e-02 -5.3262035068871942e-02 0.0000000000000000e+00  -2.6436080748424042e-02 1.9091207773593594e-02 0.0000000000000000e+00  1.2631533555752867e+00 -4.9616518222092487e-03 0.0000000000000000e+00  1.2294126575427913e+00 -5.4821401216551503e-03 0.0000000000000000e+00  7.3178696192773074e-01 -9.6156161991895406e-01 0.0000000000000000e+00  1.1402443169923160e+00 2.4969953262640916e-02 0.0000000000000000e+00  6.1273892250783935e-01 5.4552143643445745e-02 0.0000000000000000e+00  5.9750443460730540e-01 -4.4557572322787405e-02 0.0000000000000000e+00  6.2752602161791471e-01 6.5556540354032708e-03 0.0000000000000000e+00  1.3704725711917647e+00 -4.5824242891735184e-01 0.0000000000000000e+00  7.2753989873126301e-01 6.9515817763994225e-01 0.0000000000000000e+00  4.6367383894666392e-01 2.8948644387109944e-02 0.0000000000000000e+00  7.9653980406301006e-01 -1.1886281838741400e-02 0.0000000000000000e+00  -1.4938253184845482e-01 5.6234546124196337e-02 0.0000000000000000e+00  9.6686271122704304e-01 -9.0339119548450361e-04 0.0000000000000000e+00  1.5818832578926072e+00 1.2608912084717053e-01 0.0000000000000000e+00  7.9758618188060504e-01 -3.2900176631167011e-02 0.0000000000000000e+00  1.8564945142678990e+00 1.3783496712829407e-01 0.0000000000000000e+00  1.4587603663177746e+00 -5.7813321198638030e-03 0.0000000000000000e+00  1.5900258494280284e+00 5.9603306459300887e-01 0.0000000000000000e+00  9.7675464501170406e-01 -1.9646151562029640e-01 0.0000000000000000e+00  1.1895624636525892e+00 3.5881464378701378e-02 0.0000000000000000e+00  1.3039877624010967e+00 3.9390986882857373e-02 0.0000000000000000e+00  1.2488241552507064e+00 6.7734950441159042e-02 0.0000000000000000e+00  1.1913628899647521e+00 -4.9062732033546184e-02 0.0000000000000000e+00  1.1729539742272010e+00 -8.0719606975249766e-03 0.0000000000000000e+00  1.0629785655396307e+00 3.9241346100751293e-02 0.0000000000000000e+00  1.0484512016952474e+00 1.3155622545151588e-01 0.0000000000000000e+00  1.2240162154112182e+00 -9.2544340369418096e-02 0.0000000000000000e+00  1.0766261301005695e+00 -4.6302391088505049e-02 0.0000000000000000e+00  1.2503786236706786e+00 3.825300719309