<?xml version="1.0"?>
<VTKFile type="UnstructuredGrid"  version="0.1"  >
<UnstructuredGrid>
<Piece  NumberOfPoints="3852" NumberOfCells="7360">
<Points>
<DataArray  type="Float64"  NumberOfComponents="3"  format="ascii">0 0 0  0 0.41 0  2.2 0.41 0  2.2 0 0  0.2 0.15 0  0.15 0.2 0  0.2 0.25 0  0.25 0.2 0  0.2097545161007899 0.1509607359798352 0  0.219134171618224 0.153806023374423 0  0.2277785116509268 0.1584265193848371 0  0.2353553390592504 0.1646446609405956 0  0.2415734806150793 0.1722214883489481 0  0.2461939766255306 0.1808658283816641 0  0.249039264020151 0.1902454838991403 0  0.2490392640201666 0.2097545161007811 0  0.2461939766255869 0.2191341716182 0  0.2415734806151802 0.2277785116509009 0  0.2353553390594108 0.235355339059244 0  0.2277785116510524 0.2415734806150789 0  0.2191341716182962 0.2461939766255471 0  0.209754516100834 0.2490392640201561 0  0.1902454838992189 0.2490392640201666 0  0.1808658283818 0.2461939766255869 0  0.1722214883490991 0.2415734806151802 0  0.164644660940756 0.2353553390594108 0  0.1584265193849211 0.2277785116510524 0  0.1538060233744529 0.2191341716182962 0  0.150960735979844 0.209754516100834 0  0.1509607359798352 0.1902454838992101 0  0.153806023374423 0.180865828381776 0  0.1584265193848371 0.1722214883490732 0  0.1646446609405956 0.1646446609407496 0  0.1722214883489481 0.1584265193849207 0  0.1808658283816641 0.1538060233744694 0  0.1902454838991403 0.150960735979849 0  0.09999999999980318 0 0  0.1999999999996354 0 0  0.2999999999994593 0 0  0.3999999999991452 0 0  0.4999999999988309 0 0  0.599999999998495 0 0  0.6999999999982023 0 0  0.7999999999979096 0 0  0.8999999999975735 0 0  0.9999999999972848 0 0  1.099999999997053 0 0  1.199999999997309 0 0  1.299999999997566 0 0  1.399999999997821 0 0  1.49999999999809 0 0  1.599999999998377 0 0  1.69999999999859 0 0  1.799999999998877 0 0  1.899999999999145 0 0  1.999999999999386 0 0  2.099999999999693 0 0  2.2 0.08199999999981657 0  2.2 0.1639999999995688 0  2.2 0.2459999999995603 0  2.2 0.327999999999785 0  2.100000000000048 0.41 0  2.000000000000269 0.41 0  1.900000000000422 0.41 0  1.800000000000679 0.41 0  1.700000000000931 0.41 0  1.600000000001326 0.41 0  1.500000000001665 0.41 0  1.400000000002032 0.41 0  1.300000000002395 0.41 0  1.200000000002644 0.41 0  1.100000000002865 0.41 0  1.000000000002617 0.41 0  0.900000000002368 0.41 0  0.8000000000021192 0.41 0  0.7000000000018587 0.41 0  0.6000000000015786 0.41 0  0.5000000000013736 0.41 0  0.4000000000010933 0.41 0  0.3000000000008329 0.41 0  0.2000000000005997 0.41 0  0.1000000000003003 0.41 0  0 0.3280000000001975 0  0 0.2460000000004372 0  0 0.1640000000004437 0  0 0.08200000000021695 0  0.439039350479032 0.2235433210862024 0  0.3557293424662716 0.1539377961885917 0  0.3450132387946972 0.2399891502764809 0  0.2900756359792848 0.08507884665974728 0  0.2884413411145515 0.3059878288466324 0  0.2102195502178943 0.3385267178242456 0  0.137328909169326 0.3152847369018352 0  0.08490385663776813 0.2628976192695439 0  0.08063302347471875 0.188368977740952 0  0.1005937615311739 0.1162460982751979 0  0.1621860847198582 0.08598327887900903 0  0.3012864586130264 0.1926027915888804 0  1.999140000000448 0.2049999999995642 0  0.2742354912953259 0.1572259708446958 0  0.2871471664627305 0.2264358039321654 0  0.6542851578645765 0.1981889790488746 0  0.2651366296338276 0.2534562504463119 0  0.2371819217149928 0.0977949043027586 0  1.651678197071202 0.2145186615851206 0  1.349674714201118 0.2086119645070391 0  0.9627539291831038 0.2056711800839285 0  0.2360880502985623 0.2733043913425156 0  1.159884231859056 0.2050429640239795 0  0.2502927927237266 0.1358797630898622 0  0.2080582834123368 0.2835355213895352 0  0.1805439632603489 0.278338480667804 0  0.1486243506827335 0.2626014098227327 0  0.1266658889266303 0.2392753516137401 0  0.1179814841582247 0.2069380844236527 0  0.1225167704961566 0.1764957192948648 0  0.1357996569043286 0.1472158045151807 0  0.1619764829264572 0.126298308975886 0  0.1935640279204225 0.116654032325456 0  1.82457000000085 0.2346439024393236 0  0.8027657238591595 0.149277802568535 0  1.498563450727992 0.2632867809910664 0  0.2770405925201826 0.1924926016722167 0  0.470924801584011 0.09138612536042019 0  0.550693598792917 0.2898604497866635 0  0.381089831438127 0.3238078833671811 0  2.074516462495042 0.125705772324225 0  2.083599037046577 0.2769549245607841 0  0.2692296340100125 0.2210592970306522 0  0.7614733075682367 0.2839235561638241 0  1.536698221979284 0.1258192462655419 0  1.231809489345021 0.1282542717942667 0  1.054759157670174 0.1242749934189342 0  1.754535566851005 0.1223197024158991 0  1.90452621597739 0.1324728094649104 0  0.2672409321155211 0.178737994598723 0  1.254401531996246 0.2902808614622134 0  1.04350934597445 0.2986664252663559 0  0.0749710792305778 0.3208721925318313 0  0.5425289614095572 0.165152457827861 0  0.1663208394680799 0.2644065126118989 0  0.1471335176887868 0.2433864007787126 0  0.1345556779484054 0.219852318055334 0  0.131940483167677 0.1932967226753857 0  0.1941574795820069 0.2685534232066453 0  0.2226696214021025 0.1252682734732412 0  0.2193882214552426 0.2661718674478616 0  0.1396865053227576 0.1677617654469802 0  0.8749487631478475 0.295170577255529 0  1.424301820545763 0.1157348858866879 0  1.918515045506933 0.2902236143624367 0  1.744876807925144 0.306628844405037 0  0.2443979144126529 0.254353837216211 0  0.2569054246570621 0.2306780201523878 0  0.2632507216716993 0.2062296523407826 0  0.4609453431326088 0.3138128990490959 0  0.3578015395476809 0.08253318517696946 0  0.2529777826635333 0.155582948480283 0  0.1580369715200277 0.1487041474358234 0  0.652872088668587 0.3101079993636056 0  0.297147332491062 0.2558065812325378 0  0.6188247313471635 0.1101603945467571 0  0.8951149554961688 0.1123812542864208 0  1.592749166085722 0.2985190085719691 0  1.40420309431358 0.2992155383468256 0  1.649189110727275 0.1000387439201274 0  0.2301663900864273 0.1432830242131801 0  0.2064839406544439 0.1345771465164309 0  0.2548204572493643 0.1702022465417566 0  0.1606700828011604 0.2481621709908606 0  0.2605987457303776 0.1928909671966518 0  0.1826942838524941 0.2594610608897559 0  0.1456438338561037 0.2290651013631561 0  0.1387681034994896 0.2058679665896095 0  1.140902260384949 0.3081952438204152 0  2.123402621966431 0.2039515281261525 0  0.7272188829630218 0.1047469619375249 0  0.2060868819369127 0.2616331638469837 0  0.246763614216289 0.2411610007697902 0  0.1405961691450822 0.1819800466423126 0  1.149638048863541 0.08264492713269313 0  0.1809997740285721 0.1365020267363126 0  1.993198408221569 0.09755938404998035 0  0.2287111352430851 0.2547015941619741 0  0.3818716699056283 0.2060398770290832 0  0.39147508084147 0.2656155699545688 0  0.151201080877373 0.1608659990301362 0  0.0542521118046473 0.1382221876243976 0  0.06190301158313444 0.0685934933767465 0  1.317316039400266 0.1015983144534349 0  0.2176417279723976 0.1415790407114221 0  0.2401571300978209 0.1529210337009423 0  0.2618092962776011 0.3566662607419938 0  0.1941527094396574 0.1377969918002053 0  0.9590486261329707 0.3255353063371385 0  0.1708201090411339 0.1447474051814825 0  1.837592370686806 0.3302992722413595 0  0.3197015570210796 0.1212159119695666 0  0.4155281956943757 0.1409543952531078 0  0.0549491513262805 0.2307535706287103 0  0.1668210562270142 0.3605647861782867 0  0.2854688902460447 0.2093700809023571 0  2.013251581901814 0.3292746985146142 0  0.1192191106244758 0.2809901915857802 0  0.2487958366614321 0.04556523514103697 0  0.09061021186838321 0.2240174335271237 0  1.737143840576958 0.20912817770623 0  0.04515017012776967 0.2784708690411318 0  0.5347554646753627 0.08988970780599832 0  0.977104673723579 0.08241628541188413 0  0.336509991617897 0.2888965225844298 0  0.2569238041969055 0.2173711314485607 0  1.906541186051535 0.2125389476829634 0  0.1762338839607841 0.3102437166134606 0  1.449268841077636 0.201011295143529 0  0.8555371485878378 0.2099663446585434 0  1.837208236203613 0.07556229833764837 0  1.264402545318887 0.1992523923163096 0  1.068181074047183 0.2155119107017876 0  0.3158931250274742 0.3421721218291775 0  0.2731958384900449 0.2373435058667565 0  0.09875906484220501 0.1533097574901186 0  0.7355755433976705 0.2066339904079041 0  1.567440499207928 0.2049999999995983 0  1.329829828222916 0.3295825481537897 0  0.8214190147401245 0.07894167681990104 0  1.525459989258997 0.3394220200696043 0  0.1990897327079506 0.06300531675246424 0  0.244701762210989 0.3062404318132603 0  0.1033853772622983 0.3551443431224104 0  0.1178236825374896 0.07148041782551597 0  0.1558198999929474 0.04409380269139784 0  0.3389178979413869 0.198678920661321 0  0.310790717645908 0.2196004930752872 0  2.125022007676643 0.3402049371791425 0  2.130028889485561 0.06535501282233655 0  0.4821161335597635 0.1626909543876269 0  0.2838678108956019 0.1254276466262967 0  0.5062815929260498 0.2376271077316994 0  1.663059277092996 0.3422301118688678 0  1.82292665764828 0.1574809263836269 0  2.052538557905295 0.05717536030732174 0  0.3078251537889645 0.16056368457456 0  0.8108267070172145 0.3390047366820738 0  1.487254632568403 0.0703866281621833 0  0.155004430757041 0.2369517702015699 0  0.1725545045705267 0.2519594403466565 0  0.1445581653510352 0.2167994984574706 0  0.1420710285613199 0.1942747855116325 0  1.461861739291679 0.3471998553985149 0  0.2372128969196007 0.2453440460936858 0  0.1943665918892754 0.2580518465884657 0  0.2452139232912363 0.1629124725160763 0  0.2555786751481889 0.1825885041235872 0  2.14640473333793 0.2790222779730848 0  2.145589594789407 0.1282024626544199 0  0.1486651579751984 0.1726583296292201 0  0.550000000001476 0.3603327897285098 0  0.0505668771231032 0.3660023622363767 0  1.049999999997169 0.05217028468202135 0  1.244771793631775 0.05744029386223062 0  0.1356759337238615 0.1094447816941579 0  0.5872326411628903 0.2223148728195226 0  0.2168458206248643 0.2558159203714847 0  1.749999999998732 0.05166028789524129 0  0.2855257256666041 0.1763246086558152 0  1.92
[...]
<PointData  Vectors="f_22"> 
<DataArray  type="Float64"  Name="f_22"  NumberOfComponents="3" format="ascii">0.0000000000000000e+00 0.0000000000000000e+00 0.0000000000000000e+00  0.0000000000000000e+00 0.0000000000000000e+00 0.0000000000000000e+00  0.0000000000000000e+00 0.0000000000000000e+00 0.0000000000000000e+00  0.0000000000000000e+00 0.0000000000000000e+00 0.0000000000000000e+00  0.0000000000000000e+00 0.0000000000000000e+00 0.0000000000000000e+00  0.0000000000000000e+00 0.0000000000000000e+00 0.0000000000000000e+00  0.0000000000000000e+00 0.0000000000000000e+00 0.0000000000000000e+00  0.0000000000000000e+00 0.0000000000000000e+00 0.0000000000000000e+00  0.0000000000000000e+00 0.0000000000000000e+00 0.0000000000000000e+00  0.0000000000000000e+00 0.0000000000000000e+00 0.0000000000000000e+00  0.0000000000000000e+00 0.0000000000000000e+00 0.0000000000000000e+00  0.0000000000000000e+00 0.0000000000000000e+00 0.0000000000000000e+00  0.0000000000000000e+00 0.0000000000000000e+00 0.0000000000000000e+00  0.0000000000000000e+00 0.0000000000000000e+00 0.0000000000000000e+00  0.0000000000000000e+00 0.0000000000000000e+00 0.0000000000000000e+00  0.0000000000000000e+00 0.0000000000000000e+00 0.0000000000000000e+00  0.0000000000000000e+00 0.0000000000000000e+00 0.0000000000000000e+00  0.0000000000000000e+00 0.0000000000000000e+00 0.0000000000000000e+00  0.0000000000000000e+00 0.0000000000000000e+00 0.0000000000000000e+00  0.0000000000000000e+00 0.0000000000000000e+00 0.0000000000000000e+00  0.0000000000000000e+00 0.0000000000000000e+00 0.0000000000000000e+00  0.0000000000000000e+00 0.0000000000000000e+00 0.0000000000000000e+00  0.0000000000000000e+00 0.0000000000000000e+00 0.0000000000000000e+00  0.0000000000000000e+00 0.0000000000000000e+00 0.0000000000000000e+00  0.0000000000000000e+00 0.0000000000000000e+00 0.0000000000000000e+00  0.0000000000000000e+00 0.0000000000000000e+00 0.0000000000000000e+00  0.0000000000000000e+00 0.0000000000000000e+00 0.0000000000000000e+00  0.0000000000000000e+00 0.0000000000000000e+00 0.0000000000000000e+00  0.0000000000000000e+00 0.0000000000000000e+00 0.0000000000000000e+00  0.0000000000000000e+00 0.0000000000000000e+00 0.0000000000000000e+00  0.0000000000000000e+00 0.0000000000000000e+00 0.0000000000000000e+00  0.0000000000000000e+00 0.0000000000000000e+00 0.0000000000000000e+00  0.0000000000000000e+00 0.0000000000000000e+00 0.0000000000000000e+00  0.0000000000000000e+00 0.0000000000000000e+00 0.0000000000000000e+00  0.0000000000000000e+00 0.0000000000000000e+00 0.0000000000000000e+00  0.0000000000000000e+00 0.0000000000000000e+00 0.0000000000000000e+00  0.0000000000000000e+00 0.0000000000000000e+00 0.0000000000000000e+00  0.0000000000000000e+00 0.0000000000000000e+00 0.0000000000000000e+00  0.0000000000000000e+00 0.0000000000000000e+00 0.0000000000000000e+00  0.0000000000000000e+00 0.0000000000000000e+00 0.0000000000000000e+00  0.0000000000000000e+00 0.0000000000000000e+00 0.0000000000000000e+00  0.0000000000000000e+00 0.0000000000000000e+00 0.0000000000000000e+00  0.0000000000000000e+00 0.0000000000000000e+00 0.0000000000000000e+00  0.0000000000000000e+00 0.0000000000000000e+00 0.0000000000000000e+00  0.0000000000000000e+00 0.0000000000000000e+00 0.0000000000000000e+00  0.0000000000000000e+00 0.0000000000000000e+00 0.0000000000000000e+00  0.0000000000000000e+00 0.0000000000000000e+00 0.0000000000000000e+00  0.0000000000000000e+00 0.0000000000000000e+00 0.0000000000000000e+00  0.0000000000000000e+00 0.0000000000000000e+00 0.0000000000000000e+00  0.0000000000000000e+00 0.0000000000000000e+00 0.0000000000000000e+00  0.0000000000000000e+00 0.0000000000000000e+00 0.0000000000000000e+00  0.0000000000000000e+00 0.0000000000000000e+00 0.0000000000000000e+00  0.0000000000000000e+00 0.0000000000000000e+00 0.0000000000000000e+00  0.0000000000000000e+00 0.0000000000000000e+00 0.0000000000000000e+00  0.0000000000000000e+00 0.0000000000000000e+00 0.0000000000000000e+00  0.0000000000000000e+00 0.0000000000000000e+00 0.0000000000000000e+00  0.0000000000000000e+00 0.0000000000000000e+00 0.0000000000000000e+00  1.1011686939514354e+00 -6.6660097894875503e-05 0.0000000000000000e+00  1.2537871925367383e+00 -4.9472826348460745e-04 0.0000000000000000e+00  1.2543142801659370e+00 -3.2656750977848477e-04 0.0000000000000000e+00  1.1010778455046579e+00 1.0995609870994185e-04 0.0000000000000000e+00  0.0000000000000000e+00 0.0000000000000000e+00 0.0000000000000000e+00  0.0000000000000000e+00 0.0000000000000000e+00 0.0000000000000000e+00  0.0000000000000000e+00 0.0000000000000000e+00 0.0000000000000000e+00  0.0000000000000000e+00 0.0000000000000000e+00 0.0000000000000000e+00  0.0000000000000000e+00 0.0000000000000000e+00 0.0000000000000000e+00  0.0000000000000000e+00 0.0000000000000000e+00 0.0000000000000000e+00  0.0000000000000000e+00 0.0000000000000000e+00 0.0000000000000000e+00  0.0000000000000000e+00 0.0000000000000000e+00 0.0000000000000000e+00  0.0000000000000000e+00 0.0000000000000000e+00 0.0000000000000000e+00  0.0000000000000000e+00 0.0000000000000000e+00 0.0000000000000000e+00  0.0000000000000000e+00 0.0000000000000000e+00 0.0000000000000000e+00  0.0000000000000000e+00 0.0000000000000000e+00 0.0000000000000000e+00  0.0000000000000000e+00 0.0000000000000000e+00 0.0000000000000000e+00  0.0000000000000000e+00 0.0000000000000000e+00 0.0000000000000000e+00  0.0000000000000000e+00 0.0000000000000000e+00 0.0000000000000000e+00  0.0000000000000000e+00 0.0000000000000000e+00 0.0000000000000000e+00  0.0000000000000000e+00 0.0000000000000000e+00 0.0000000000000000e+00  0.0000000000000000e+00 0.0000000000000000e+00 0.0000000000000000e+00  0.0000000000000000e+00 0.0000000000000000e+00 0.0000000000000000e+00  0.0000000000000000e+00 0.0000000000000000e+00 0.0000000000000000e+00  0.0000000000000000e+00 0.0000000000000000e+00 0.0000000000000000e+00  9.6000004933839822e-01 0.0000000000000000e+00 0.0000000000000000e+00  1.4400000740089196e+00 0.0000000000000000e+00 0.0000000000000000e+00  1.4400000740114980e+00 0.0000000000000000e+00 0.0000000000000000e+00  9.6000004934203775e-01 0.0000000000000000e+00 0.0000000000000000e+00  -6.1644634588898906e-02 4.3652184687187934e-01 0.0000000000000000e+00  4.8533932063306734e-01 4.4767757677126138e-02 0.0000000000000000e+00  -1.0917172777419003e-02 1.7919527887482144e-02 0.0000000000000000e+00  1.8728376841387457e+00 -4.7693212048440736e-02 0.0000000000000000e+00  1.9215866229874334e+00 1.1427846182458189e-01 0.0000000000000000e+00  1.4498307487942725e+00 2.1915161143912512e-01 0.0000000000000000e+00  1.3070230915944077e+00 3.4653647933650794e-01 0.0000000000000000e+00  1.3284437748582321e+00 2.4862897758133490e-01 0.0000000000000000e+00  1.3068256342073308e+00 -8.6264762419734159e-02 0.0000000000000000e+00  1.2692963551690080e+00 -3.3596983929121949e-01 0.0000000000000000e+00  1.4216628608145581e+00 -3.8267214262428145e-01 0.0000000000000000e+00  -2.0089934543978596e-01 -1.3570167971619573e-01 0.0000000000000000e+00  1.2530701585595703e+00 -1.0531371231248397e-02 0.0000000000000000e+00  8.2301254081560207e-02 -1.4746147683883265e-01 0.0000000000000000e+00  -1.3479960146207445e-01 -1.7616462891301480e-02 0.0000000000000000e+00  5.8684667634918519e-01 -5.9835365281407049e-01 0.0000000000000000e+00  2.3275878089415009e-01 2.0051195472970192e-02 0.0000000000000000e+00  1.9024205952697393e+00 -2.3917423927507486e-01 0.0000000000000000e+00  1.1901316003333566e+00 -4.7493459339654542e-02 0.0000000000000000e+00  1.3783630098140824e+00 7.5885696663703220e-02 0.0000000000000000e+00  1.5449275993890299e+00 -3.3275767469682144e-01 0.0000000000000000e+00  1.6940588384767106e+00 2.0861214410647808e-01 0.0000000000000000e+00  1.3382966853506053e+00 -1.1914057605092580e-01 0.0000000000000000e+00  9.2333002683668808e-01 -7.2383507648509010e-02 0.0000000000000000e+00  1.9806303214338119e+00 4.4386664475966059e-01 0.0000000000000000e+00  1.8481993326426402e+00 6.4100387468008135e-01 0.0000000000000000e+00  1.4804803661758918e+00 7.6327103514189298e-01 0.0000000000000000e+00  1.1394247057587332e+00 5.4413859474351078e-01 0.0000000000000000e+00  9.3781683237104752e-01 8.5090542707402461e-02 0.0000000000000000e+00  9.8892390927582519e-01 -4.1871969912407592e-01 0.0000000000000000e+00  1.3004560147346866e+00 -7.1733795486316176e-01 0.0000000000000000e+00  1.6635174689081271e+00 -7.3107919797807808e-01 0.0000000000000000e+00  1.9238080821862922e+00 -5.3560128547704966e-01 0.0000000000000000e+00  1.2675780907042484e+00 4.2743523821122268e-03 0.0000000000000000e+00  1.5662852680030479e+00 2.7369124294581476e-01 0.0000000000000000e+00  1.4769813823159768e+00 6.7728590691060655e-03 0.0000000000000000e+00  -1.1819299278864157e-01 -1.4423001406006852e-01 0.0000000000000000e+00  1.5394953998450749e+00 1.5118807724314245e-01 0.0000000000000000e+00  1.7907417188805441e+00 -5.5036492928790559e-01 0.0000000000000000e+00  1.8615365472102388e+00 -1.9432506107979041e-02 0.0000000000000000e+00  1.2300819717100178e+00 -1.5703076536742501e-03 0.0000000000000000e+00  1.2426026582769265e+00 -2.4926186702411385e-03 0.0000000000000000e+00  -9.4787252999553734e-02 -2.4482665109597755e-03 0.0000000000000000e+00  9.7540908000325699e-01 1.5129692028618960e-01 0.0000000000000000e+00  1.2107605131800920e+00 -4.7534981683246831e-02 0.0000000000000000e+00  1.4910464445063338e+00 1.4981957290334710e-02 0.0000000000000000e+00  1.3428002395391823e+00 -1.1391537729695908e-02 0.0000000000000000e+00  1.2351599727979130e+00 -3.3306720309872117e-03 0.0000000000000000e+00  1.2179869712402838e+00 -4.1750573558369929e-03 0.0000000000000000e+00  -6.8712727973299303e-02 -1.8778304346467536e-01 0.0000000000000000e+00  1.3115556919009539e+00 -1.0500471481678536e-02 0.0000000000000000e+00  1.1813240462967805e+00 4.7272734506339023e-02 0.0000000000000000e+00  1.0757749921335271e+00 1.6533933425451894e-01 0.0000000000000000e+00  -2.5180241758369592e-02 -8.6790818002625669e-02 0.0000000000000000e+00  1.7276939143569072e+00 8.5037294505790328e-01 0.0000000000000000e+00  1.2219093983760358e+00 9.2790100236406314e-01 0.0000000000000000e+00  7.5398669604349200e-01 4.9095960689152829e-01 0.0000000000000000e+00  6.4712875201334308e-01 -2.1950001693756332e-01 0.0000000000000000e+00  1.9927272284907434e+00 5.9570555742290121e-01 0.0000000000000000e+00  1.9368398461804572e+00 -3.0718726082999692e-01 0.0000000000000000e+00  1.4562941196375119e+00 2.0983704256943539e-01 0.0000000000000000e+00  9.7388297936908130e-01 -8.2005866539335293e-01 0.0000000000000000e+00  1.7127126968483861e+00 -2.2309446258478977e-01 0.0000000000000000e+00  1.2460857512905008e+00 -7.7348633803433937e-03 0.0000000000000000e+00  1.2375414239501805e+00 5.5982653590608657e-04 0.0000000000000000e+00  1.2200413917677377e+00 -1.6895973772527299e-03 0.0000000000000000e+00  2.5332205923508461e-01 3.5784396723603840e-02 0.0000000000000000e+00  -6.4964918576120204e-02 4.6209787356374571e-02 0.0000000000000000e+00  -5.5028116035990504e-02 -7.1586196641442071e-02 0.0000000000000000e+00  1.9797105933866010e+00 -2.1815177257740853e-01 0.0000000000000000e+00  1.8316894399826342e+00 1.4575458329646937e-01 0.0000000000000000e+00  1.2823556404031114e-03 -1.0911268567605291e-01 0.0000000000000000e+00  1.5261810916796239e+00 -1.0590876515063321e+00 0.0000000000000000e+00  1.2389319746822758e+00 -3.5024446882034724e-02 0.0000000000000000e+00  3.3022945193248660e-01 -2.5523133130709686e-02 0.0000000000000000e+00  1.7346094685419524e+00 4.5053705437071288e-02 0.0000000000000000e+00  1.1585200096934996e+00 -1.4460091170370876e-01 0.0000000000000000e+00  1.2343910512856842e+00 5.7377882901233059e-02 0.0000000000000000e+00  1.3500308789659079e+00 3.3660092498261358e-02 0.0000000000000000e+00  1.2015969091703982e+00 -1.3635159006929643e-02 0.0000000000000000e+00  4.3337387547567863e-01 -3.7802285390685850e-02 0.0000000000000000e+00  1.7232677392168860e+00 -3.4632181591905326e-01 0.0000000000000000e+00  -6.3528595288823625e-02 -1.5700264410133000e-01 0.0000000000000000e+00  1.4938352750468589e+00 1.1012921263965980e+00 0.0000000000000000e+00  -4.6341350534418214e-02 -1.3819958854286871e-01 0.0000000000000000e+00  1.8602875323329944e+00 7.6385022943472403e-01 0.0000000000000000e+00  8.3096006678295875e-01 9.0201446705354982e-01 0.0000000000000000e+00  4.2746305593795619e-01 1.7433010307136540e-01 0.0000000000000000e+00  1.1742662769462691e+00 8.0080041667181592e-02 0.0000000000000000e+00  1.2571547130115348e+00 -1.9869581025700506e-03 0.0000000000000000e+00  1.6150227310072762e+00 4.1854814696631487e-01 0.0000000000000000e+00  1.3591457236955706e+00 2.4565278742423785e-01 0.0000000000000000e+00  -4.9905311306720518e-02 5.9142775895727313e-02 0.0000000000000000e+00  6.0118236463157870e-01 -6.5349735684974419e-01 0.0000000000000000e+00  9.6342440145787811e-01 4.1739179650210456e-02 0.0000000000000000e+00  1.9564621891822171e+00 -8.1001090054394864e-01 0.0000000000000000e+00  1.1678351997849561e+00 -9.2487219747228937e-04 0.0000000000000000e+00  2.8350718560460009e-01 2.5485959647173206e-02 0.0000000000000000e+00  -4.2545452693681657e-01 1.8689993291116666e-01 0.0000000000000000e+00  8.3252764554609426e-01 7.3129292887497394e-02 0.0000000000000000e+00  1.1762273908550924e+00 -1.1071977410603120e+00 0.0000000000000000e+00  1.3208336814902248e+00 -1.4289842020842933e-01 0.0000000000000000e+00  8.8582732832995870e-01 -1.1642448878929612e-01 0.0000000000000000e+00  1.1352129647389473e+00 -1.2729394361269555e-01 0.0000000000000000e+00  7.1431662301861076e-01 -6.2130729250626474e-02 0.0000000000000000e+00  -1.7395565350076712e-03 -6.1321894012581403e-02 0.0000000000000000e+00  1.3978057665603267e+00 8.6273017106377636e-02 0.0000000000000000e+00  1.8061306377162978e+00 -5.2054604404661398e-01 0.0000000000000000e+00  9.9540822138298246e-01 -1.2757470257646963e-01 0.0000000000000000e+00  1.7857021204818186e+00 -1.0127337551871489e+00 0.0000000000000000e+00  1.0897183363465990e+00 2.4470236531456417e-03 0.0000000000000000e+00  1.7280361166054483e+00 3.6751124716554763e-02 0.0000000000000000e+00  1.1971540727205463e+00 4.4203977079506884e-01 0.0000000000000000e+00  1.4132013894630147e+00 7.8689267524180234e-02 0.0000000000000000e+00  1.0234257501915667e+00 1.6194979159480902e-01 0.0000000000000000e+00  -1.6909205621696974e-01 -7.1895276176394921e-02 0.0000000000000000e+00  1.0985489563072890e+00 -2.3032154172630032e-03 0.0000000000000000e+00  1.3556088038646490e+00 4.2602909100287439e-01 0.0000000000000000e+00  1.3507405508316030e+00 -7.2147134357920986e-02 0.0000000000000000e+00  1.2685221439262293e+00 1.5095570219083557e-01 0.0000000000000000e+00  1.2113481123572296e+00 4.1073533046638751e-02 0.0000000000000000e+00  1.3026654269139488e+00 1.1046664747786342e-01 0.0000000000000000e+00  1.5252785307699088e+00 -3.1401200602101491e-02 0.0000000000000000e+00  1.0567835967293613e+00 1.5280360840486057e-02 0.0000000000000000e+00  1.7620029221208342e+00 2.2482217637734947e-02 0.0000000000000000e+00  -3.4937704266591159e-02 -5.2840401309462261e-04 0.0000000000000000e+00  1.2582890408010750e+00 -2.1338076585460251e-02 0.0000000000000000e+00  1.5659445502130840e+00 4.0548190469109252e-01 0.0000000000000000e+00  1.2742696227571928e+00 6.8208499564021793e-02 0.0000000000000000e+00  1.2680727204752991e+00 2.7761109245310300e-01 0.0000000000000000e+00  1.0621347106690213e+00 3.6640585490563321e-03 0.0000000000000000e+00  1.5689560946193626e+00 1.0033587493830333e-01 0.0000000000000000e+00  1.6136224329221631e+00 -5.9452055976887019e-02 0.0000000000000000e+00  1.6415332804291074e+00 4.0953285340159455e-02 0.0000000000000000e+00  -5.9406700575333211e-02 2.1317854781009664e-02 0.0000000000000000e+00  1.2735523091359700e+00 -3.3379968089314332e-01 0.0000000000000000e+00  1.1373905793072998e+00 3.5824386121489488e-01 0.0000000000000000e+00  1.2846619766591201e+00 -6.2905729231810883e-02 0.0000000000000000e+00  9.8175036863218124e-01 2.2033909940386329e-02 0.0000000000000000e+00  8.8518234643661686e-01 -3.8008837230684114e-02 0.0000000000000000e+00  9.4204666542329174e-01 6.1472039048215528e-02 0.0000000000000000e+00  1.3876921339218715e+00 -2.1867744706227085e-01 0.0000000000000000e+00  1.8754497030591601e+00 2.3018229522089337e-01 0.0000000000000000e+00  8.4203367299710619e-01 1.3664462545191702e-01 0.0000000000000000e+00  1.0679209554865727e+00 -2.4478440095775456e-01 0.0000000000000000e+00  9.6461428020125539e-01 -1.5886512890428589e-01 0.0000000000000000e+00  -3.2822214803700467e-01 -5.8357600407919631e-02 0.0000000000000000e+00  -2.2362252405347774e-01 -4.9489261316660677e-02 0.0000000000000000e+00  1.0207806377778545e+00 -2.0614210493515380e-06 0.0000000000000000e+00  9.8484808170658733e-01 -1.5947996316891601e-04 0.0000000000000000e+00  1.4765451564469398e-01 4.4351954236332064e-01 0.0000000000000000e+00  1.5285049959058803e+00 -6.2577301173744368e-02 0.0000000000000000e+00  1.0175037903280617e+00 -2.1805902562807020e-01 0.0000000000000000e+00  1.0099343958159890e+00 1.0117068126868151e-04 0.0000000000000000e+00  1.2200571891004988e+00 1.9605255269801537e-02 0.0000000000000000e+00  9.0801265863945479e-01 -4.1591225089885508e-04 0.0000000000000000e+00  1.3998038227442816e-01 -1.4300774197713215e-01 0.0000000000000000e+00  1.1938977081126430e+00 -3.4476691754270740e-02 0.0000000000000000e+00  9.5953350199909648e-01 -1.9736001864611778e-02 0.0000000000000000e+00  1.0779725048662148e+00 1.1158503826596691e+00 0.0000000000000000e+00  1.6417071095727169e+00 9.4748406649727879e-01 0.0000000000000000e+00  4.4380874110955643e-01 6.2622261368224175e-01 0.0000000000000000e+00  3.0714848007218648e-01 -2.7558552950942306e-01 0.0000000000000000e+00  8.1060858052112639e-01 5.2680880609762254e-02 0.0000000000000000e+00  -2.7436489220374307e-02 4.7386209953750043e-02 0.0000000000000000e+00  1.3811596719215204e+00 3.6455033923843616e-01 0.0000000000000000e+00  -6.6297581799651881e-02 -9.4414274284432123e-02 0.0000000000000000e+00  -4.6517310966801936e-02 -1.4501938489910757e-01 0.0000000000000000e+00  1.2388853784915641e+00 -5.4472738686924958e-04 0.0000000000000000e+00  1.2343643942433853e+00 -6.7904157527053587e-04 0.0000000000000000e+00  7.5472160048467951e-01 -1.0106782572988031e+00 0.0000000000000000e+00  1.0050043291682411e+00 -1.7074426901048359e-01 0.0000000000000000e+00  6.1034928769469587e-01 5.0532938785627514e-02 0.0000000000000000e+00  6.0042858399975452e-01 3.3360023905496243e-02 0.0000000000000000e+00  6.2285389565024996e-01 -4.4943164285326978e-02 0.0000000000000000e+00  1.3909571154510962e+00 -4.8245448001066460e-01 0.0000000000000000e+00  1.1261578871906204e+00 -7.0723752415399710e-01 0.0000000000000000e+00  4.4438823527062354e-01 2.6003058516569869e-02 0.0000000000000000e+00  8.5334257219288978e-01 -6.1340078828430638e-04 0.0000000000000000e+00  -7.4875396480104175e-02 -1.7722960213115868e-01 0.0000000000000000e+00  9.8020370772396459e-01 1.1286540352472643e-04 0.0000000000000000e+00  1.3962644266343771e+00 1.4103143815246211e-01 0.0000000000000000e+00  8.4290503436980713e-01 -2.0830480336976653e-02 0.0000000000000000e+00  1.7474432645865816e+00 1.3588746792182640e-01 0.0000000000000000e+00  1.4589059903855062e+00 -1.9590386889598511e-02 0.0000000000000000e+00  1.5608849630237587e+00 5.7707820566855350e-01 0.0000000000000000e+00  1.0292414777560499e+00 9.0901573017228426e-02 0.0000000000000000e+00  1.3051583215106166e+00 1.7513652432725561e-02 0.0000000000000000e+00  1.1956475067373451e+00 5.9970926629954614e-03 0.0000000000000000e+00  1.2853010353978385e+00 -2.3470706550388978e-02 0.0000000000000000e+00  1.2650744752836316e+00 2.8206186407963841e-02 0.0000000000000000e+00  1.2291827586039668e+00 -8.8164565514346534e-03 0.0000000000000000e+00  1.2579694151997480e+00 3.2048908901144778e-02 0.0000000000000000e+00  1.6900376547578522e+00 6.6907820911072405e-02 0.0000000000000000e+00  1.7259149927985675e+00 7.9446308676865779e-02 0.0000000000000000e+00  1.3311713204100233e+00 7.5926924743758617e-02 0.0000000000000000e+00  1.3947844815040131e+00 -