<?xml version="1.0"?>
<VTKFile type="UnstructuredGrid"  version="0.1"  >
<UnstructuredGrid>
<Piece  NumberOfPoints="3852" NumberOfCells="7360">
<Points>
<DataArray  type="Float64"  NumberOfComponents="3"  format="ascii">0 0 0  0 0.41 0  2.2 0.41 0  2.2 0 0  0.2 0.15 0  0.15 0.2 0  0.2 0.25 0  0.25 0.2 0  0.2097545161007899 0.1509607359798352 0  0.219134171618224 0.153806023374423 0  0.2277785116509268 0.1584265193848371 0  0.2353553390592504 0.1646446609405956 0  0.2415734806150793 0.1722214883489481 0  0.2461939766255306 0.1808658283816641 0  0.249039264020151 0.1902454838991403 0  0.2490392640201666 0.2097545161007811 0  0.2461939766255869 0.2191341716182 0  0.2415734806151802 0.2277785116509009 0  0.2353553390594108 0.235355339059244 0  0.2277785116510524 0.2415734806150789 0  0.2191341716182962 0.2461939766255471 0  0.209754516100834 0.2490392640201561 0  0.1902454838992189 0.2490392640201666 0  0.1808658283818 0.2461939766255869 0  0.1722214883490991 0.2415734806151802 0  0.164644660940756 0.2353553390594108 0  0.1584265193849211 0.2277785116510524 0  0.1538060233744529 0.2191341716182962 0  0.150960735979844 0.209754516100834 0  0.1509607359798352 0.1902454838992101 0  0.153806023374423 0.180865828381776 0  0.1584265193848371 0.1722214883490732 0  0.1646446609405956 0.1646446609407496 0  0.1722214883489481 0.1584265193849207 0  0.1808658283816641 0.1538060233744694 0  0.1902454838991403 0.150960735979849 0  0.09999999999980318 0 0  0.1999999999996354 0 0  0.2999999999994593 0 0  0.3999999999991452 0 0  0.4999999999988309 0 0  0.599999999998495 0 0  0.6999999999982023 0 0  0.7999999999979096 0 0  0.8999999999975735 0 0  0.9999999999972848 0 0  1.099999999997053 0 0  1.199999999997309 0 0  1.299999999997566 0 0  1.399999999997821 0 0  1.49999999999809 0 0  1.599999999998377 0 0  1.69999999999859 0 0  1.799999999998877 0 0  1.899999999999145 0 0  1.999999999999386 0 0  2.099999999999693 0 0  2.2 0.08199999999981657 0  2.2 0.1639999999995688 0  2.2 0.2459999999995603 0  2.2 0.327999999999785 0  2.100000000000048 0.41 0  2.000000000000269 0.41 0  1.900000000000422 0.41 0  1.800000000000679 0.41 0  1.700000000000931 0.41 0  1.600000000001326 0.41 0  1.500000000001665 0.41 0  1.400000000002032 0.41 0  1.300000000002395 0.41 0  1.200000000002644 0.41 0  1.100000000002865 0.41 0  1.000000000002617 0.41 0  0.900000000002368 0.41 0  0.8000000000021192 0.41 0  0.7000000000018587 0.41 0  0.6000000000015786 0.41 0  0.5000000000013736 0.41 0  0.4000000000010933 0.41 0  0.3000000000008329 0.41 0  0.2000000000005997 0.41 0  0.1000000000003003 0.41 0  0 0.3280000000001975 0  0 0.2460000000004372 0  0 0.1640000000004437 0  0 0.08200000000021695 0  0.439039350479032 0.2235433210862024 0  0.3557293424662716 0.1539377961885917 0  0.3450132387946972 0.2399891502764809 0  0.2900756359792848 0.08507884665974728 0  0.2884413411145515 0.3059878288466324 0  0.2102195502178943 0.3385267178242456 0  0.137328909169326 0.3152847369018352 0  0.08490385663776813 0.2628976192695439 0  0.08063302347471875 0.188368977740952 0  0.1005937615311739 0.1162460982751979 0  0.1621860847198582 0.08598327887900903 0  0.3012864586130264 0.1926027915888804 0  1.999140000000448 0.2049999999995642 0  0.2742354912953259 0.1572259708446958 0  0.2871471664627305 0.2264358039321654 0  0.6542851578645765 0.1981889790488746 0  0.2651366296338276 0.2534562504463119 0  0.2371819217149928 0.0977949043027586 0  1.651678197071202 0.2145186615851206 0  1.349674714201118 0.2086119645070391 0  0.9627539291831038 0.2056711800839285 0  0.2360880502985623 0.2733043913425156 0  1.159884231859056 0.2050429640239795 0  0.2502927927237266 0.1358797630898622 0  0.2080582834123368 0.2835355213895352 0  0.1805439632603489 0.278338480667804 0  0.1486243506827335 0.2626014098227327 0  0.1266658889266303 0.2392753516137401 0  0.1179814841582247 0.2069380844236527 0  0.1225167704961566 0.1764957192948648 0  0.1357996569043286 0.1472158045151807 0  0.1619764829264572 0.126298308975886 0  0.1935640279204225 0.116654032325456 0  1.82457000000085 0.2346439024393236 0  0.8027657238591595 0.149277802568535 0  1.498563450727992 0.2632867809910664 0  0.2770405925201826 0.1924926016722167 0  0.470924801584011 0.09138612536042019 0  0.550693598792917 0.2898604497866635 0  0.381089831438127 0.3238078833671811 0  2.074516462495042 0.125705772324225 0  2.083599037046577 0.2769549245607841 0  0.2692296340100125 0.2210592970306522 0  0.7614733075682367 0.2839235561638241 0  1.536698221979284 0.1258192462655419 0  1.231809489345021 0.1282542717942667 0  1.054759157670174 0.1242749934189342 0  1.754535566851005 0.1223197024158991 0  1.90452621597739 0.1324728094649104 0  0.2672409321155211 0.178737994598723 0  1.254401531996246 0.2902808614622134 0  1.04350934597445 0.2986664252663559 0  0.0749710792305778 0.3208721925318313 0  0.5425289614095572 0.165152457827861 0  0.1663208394680799 0.2644065126118989 0  0.1471335176887868 0.2433864007787126 0  0.1345556779484054 0.219852318055334 0  0.131940483167677 0.1932967226753857 0  0.1941574795820069 0.2685534232066453 0  0.2226696214021025 0.1252682734732412 0  0.2193882214552426 0.2661718674478616 0  0.1396865053227576 0.1677617654469802 0  0.8749487631478475 0.295170577255529 0  1.424301820545763 0.1157348858866879 0  1.918515045506933 0.2902236143624367 0  1.744876807925144 0.306628844405037 0  0.2443979144126529 0.254353837216211 0  0.2569054246570621 0.2306780201523878 0  0.2632507216716993 0.2062296523407826 0  0.4609453431326088 0.3138128990490959 0  0.3578015395476809 0.08253318517696946 0  0.2529777826635333 0.155582948480283 0  0.1580369715200277 0.1487041474358234 0  0.652872088668587 0.3101079993636056 0  0.297147332491062 0.2558065812325378 0  0.6188247313471635 0.1101603945467571 0  0.8951149554961688 0.1123812542864208 0  1.592749166085722 0.2985190085719691 0  1.40420309431358 0.2992155383468256 0  1.649189110727275 0.1000387439201274 0  0.2301663900864273 0.1432830242131801 0  0.2064839406544439 0.1345771465164309 0  0.2548204572493643 0.1702022465417566 0  0.1606700828011604 0.2481621709908606 0  0.2605987457303776 0.1928909671966518 0  0.1826942838524941 0.2594610608897559 0  0.1456438338561037 0.2290651013631561 0  0.1387681034994896 0.2058679665896095 0  1.140902260384949 0.3081952438204152 0  2.123402621966431 0.2039515281261525 0  0.7272188829630218 0.1047469619375249 0  0.2060868819369127 0.2616331638469837 0  0.246763614216289 0.2411610007697902 0  0.1405961691450822 0.1819800466423126 0  1.149638048863541 0.08264492713269313 0  0.1809997740285721 0.1365020267363126 0  1.993198408221569 0.09755938404998035 0  0.2287111352430851 0.2547015941619741 0  0.3818716699056283 0.2060398770290832 0  0.39147508084147 0.2656155699545688 0  0.151201080877373 0.1608659990301362 0  0.0542521118046473 0.1382221876243976 0  0.06190301158313444 0.0685934933767465 0  1.317316039400266 0.1015983144534349 0  0.2176417279723976 0.1415790407114221 0  0.2401571300978209 0.1529210337009423 0  0.2618092962776011 0.3566662607419938 0  0.1941527094396574 0.1377969918002053 0  0.9590486261329707 0.3255353063371385 0  0.1708201090411339 0.1447474051814825 0  1.837592370686806 0.3302992722413595 0  0.3197015570210796 0.1212159119695666 0  0.4155281956943757 0.1409543952531078 0  0.0549491513262805 0.2307535706287103 0  0.1668210562270142 0.3605647861782867 0  0.2854688902460447 0.2093700809023571 0  2.013251581901814 0.3292746985146142 0  0.1192191106244758 0.2809901915857802 0  0.2487958366614321 0.04556523514103697 0  0.09061021186838321 0.2240174335271237 0  1.737143840576958 0.20912817770623 0  0.04515017012776967 0.2784708690411318 0  0.5347554646753627 0.08988970780599832 0  0.977104673723579 0.08241628541188413 0  0.336509991617897 0.2888965225844298 0  0.2569238041969055 0.2173711314485607 0  1.906541186051535 0.2125389476829634 0  0.1762338839607841 0.3102437166134606 0  1.449268841077636 0.201011295143529 0  0.8555371485878378 0.2099663446585434 0  1.837208236203613 0.07556229833764837 0  1.264402545318887 0.1992523923163096 0  1.068181074047183 0.2155119107017876 0  0.3158931250274742 0.3421721218291775 0  0.2731958384900449 0.2373435058667565 0  0.09875906484220501 0.1533097574901186 0  0.7355755433976705 0.2066339904079041 0  1.567440499207928 0.2049999999995983 0  1.329829828222916 0.3295825481537897 0  0.8214190147401245 0.07894167681990104 0  1.525459989258997 0.3394220200696043 0  0.1990897327079506 0.06300531675246424 0  0.244701762210989 0.3062404318132603 0  0.1033853772622983 0.3551443431224104 0  0.1178236825374896 0.07148041782551597 0  0.1558198999929474 0.04409380269139784 0  0.3389178979413869 0.198678920661321 0  0.310790717645908 0.2196004930752872 0  2.125022007676643 0.3402049371791425 0  2.130028889485561 0.06535501282233655 0  0.4821161335597635 0.1626909543876269 0  0.2838678108956019 0.1254276466262967 0  0.5062815929260498 0.2376271077316994 0  1.663059277092996 0.3422301118688678 0  1.82292665764828 0.1574809263836269 0  2.052538557905295 0.05717536030732174 0  0.3078251537889645 0.16056368457456 0  0.8108267070172145 0.3390047366820738 0  1.487254632568403 0.0703866281621833 0  0.155004430757041 0.2369517702015699 0  0.1725545045705267 0.2519594403466565 0  0.1445581653510352 0.2167994984574706 0  0.1420710285613199 0.1942747855116325 0  1.461861739291679 0.3471998553985149 0  0.2372128969196007 0.2453440460936858 0  0.1943665918892754 0.2580518465884657 0  0.2452139232912363 0.1629124725160763 0  0.2555786751481889 0.1825885041235872 0  2.14640473333793 0.2790222779730848 0  2.145589594789407 0.1282024626544199 0  0.1486651579751984 0.1726583296292201 0  0.550000000001476 0.3603327897285098 0  0.0505668771231032 0.3660023622363767 0  1.049999999997169 0.05217028468202135 0  1.244771793631775 0.05744029386223062 0  0.1356759337238615 0.1094447816941579 0  0.5872326411628903 0.2223148728195226 0  0.2168458206248643 0.2558159203714847 0  1.749999999998732 0.05166028789524129 0  0.2855257256666041 0.1763246086558152 0  1.92
[...]
<PointData  Vectors="f_22"> 
<DataArray  type="Float64"  Name="f_22"  NumberOfComponents="3" format="ascii">0.0000000000000000e+00 0.0000000000000000e+00 0.0000000000000000e+00  0.0000000000000000e+00 0.0000000000000000e+00 0.0000000000000000e+00  0.0000000000000000e+00 0.0000000000000000e+00 0.0000000000000000e+00  0.0000000000000000e+00 0.0000000000000000e+00 0.0000000000000000e+00  0.0000000000000000e+00 0.0000000000000000e+00 0.0000000000000000e+00  0.0000000000000000e+00 0.0000000000000000e+00 0.0000000000000000e+00  0.0000000000000000e+00 0.0000000000000000e+00 0.0000000000000000e+00  0.0000000000000000e+00 0.0000000000000000e+00 0.0000000000000000e+00  0.0000000000000000e+00 0.0000000000000000e+00 0.0000000000000000e+00  0.0000000000000000e+00 0.0000000000000000e+00 0.0000000000000000e+00  0.0000000000000000e+00 0.0000000000000000e+00 0.0000000000000000e+00  0.0000000000000000e+00 0.0000000000000000e+00 0.0000000000000000e+00  0.0000000000000000e+00 0.0000000000000000e+00 0.0000000000000000e+00  0.0000000000000000e+00 0.0000000000000000e+00 0.0000000000000000e+00  0.0000000000000000e+00 0.0000000000000000e+00 0.0000000000000000e+00  0.0000000000000000e+00 0.0000000000000000e+00 0.0000000000000000e+00  0.0000000000000000e+00 0.0000000000000000e+00 0.0000000000000000e+00  0.0000000000000000e+00 0.0000000000000000e+00 0.0000000000000000e+00  0.0000000000000000e+00 0.0000000000000000e+00 0.0000000000000000e+00  0.0000000000000000e+00 0.0000000000000000e+00 0.0000000000000000e+00  0.0000000000000000e+00 0.0000000000000000e+00 0.0000000000000000e+00  0.0000000000000000e+00 0.0000000000000000e+00 0.0000000000000000e+00  0.0000000000000000e+00 0.0000000000000000e+00 0.0000000000000000e+00  0.0000000000000000e+00 0.0000000000000000e+00 0.0000000000000000e+00  0.0000000000000000e+00 0.0000000000000000e+00 0.0000000000000000e+00  0.0000000000000000e+00 0.0000000000000000e+00 0.0000000000000000e+00  0.0000000000000000e+00 0.0000000000000000e+00 0.0000000000000000e+00  0.0000000000000000e+00 0.0000000000000000e+00 0.0000000000000000e+00  0.0000000000000000e+00 0.0000000000000000e+00 0.0000000000000000e+00  0.0000000000000000e+00 0.0000000000000000e+00 0.0000000000000000e+00  0.0000000000000000e+00 0.0000000000000000e+00 0.0000000000000000e+00  0.0000000000000000e+00 0.0000000000000000e+00 0.0000000000000000e+00  0.0000000000000000e+00 0.0000000000000000e+00 0.0000000000000000e+00  0.0000000000000000e+00 0.0000000000000000e+00 0.0000000000000000e+00  0.0000000000000000e+00 0.0000000000000000e+00 0.0000000000000000e+00  0.0000000000000000e+00 0.0000000000000000e+00 0.0000000000000000e+00  0.0000000000000000e+00 0.0000000000000000e+00 0.0000000000000000e+00  0.0000000000000000e+00 0.0000000000000000e+00 0.0000000000000000e+00  0.0000000000000000e+00 0.0000000000000000e+00 0.0000000000000000e+00  0.0000000000000000e+00 0.0000000000000000e+00 0.0000000000000000e+00  0.0000000000000000e+00 0.0000000000000000e+00 0.0000000000000000e+00  0.0000000000000000e+00 0.0000000000000000e+00 0.0000000000000000e+00  0.0000000000000000e+00 0.0000000000000000e+00 0.0000000000000000e+00  0.0000000000000000e+00 0.0000000000000000e+00 0.0000000000000000e+00  0.0000000000000000e+00 0.0000000000000000e+00 0.0000000000000000e+00  0.0000000000000000e+00 0.0000000000000000e+00 0.0000000000000000e+00  0.0000000000000000e+00 0.0000000000000000e+00 0.0000000000000000e+00  0.0000000000000000e+00 0.0000000000000000e+00 0.0000000000000000e+00  0.0000000000000000e+00 0.0000000000000000e+00 0.0000000000000000e+00  0.0000000000000000e+00 0.0000000000000000e+00 0.0000000000000000e+00  0.0000000000000000e+00 0.0000000000000000e+00 0.0000000000000000e+00  0.0000000000000000e+00 0.0000000000000000e+00 0.0000000000000000e+00  0.0000000000000000e+00 0.0000000000000000e+00 0.0000000000000000e+00  0.0000000000000000e+00 0.0000000000000000e+00 0.0000000000000000e+00  0.0000000000000000e+00 0.0000000000000000e+00 0.0000000000000000e+00  0.0000000000000000e+00 0.0000000000000000e+00 0.0000000000000000e+00  0.0000000000000000e+00 0.0000000000000000e+00 0.0000000000000000e+00  1.0983460915807994e+00 -2.5623889961989914e-03 0.0000000000000000e+00  1.5068628892133098e+00 8.7596969783851810e-03 0.0000000000000000e+00  1.2038694616653618e+00 1.2604827442915975e-01 0.0000000000000000e+00  9.3488627680003933e-01 3.9983758524453461e-02 0.0000000000000000e+00  0.0000000000000000e+00 0.0000000000000000e+00 0.0000000000000000e+00  0.0000000000000000e+00 0.0000000000000000e+00 0.0000000000000000e+00  0.0000000000000000e+00 0.0000000000000000e+00 0.0000000000000000e+00  0.0000000000000000e+00 0.0000000000000000e+00 0.0000000000000000e+00  0.0000000000000000e+00 0.0000000000000000e+00 0.0000000000000000e+00  0.0000000000000000e+00 0.0000000000000000e+00 0.0000000000000000e+00  0.0000000000000000e+00 0.0000000000000000e+00 0.0000000000000000e+00  0.0000000000000000e+00 0.0000000000000000e+00 0.0000000000000000e+00  0.0000000000000000e+00 0.0000000000000000e+00 0.0000000000000000e+00  0.0000000000000000e+00 0.0000000000000000e+00 0.0000000000000000e+00  0.0000000000000000e+00 0.0000000000000000e+00 0.0000000000000000e+00  0.0000000000000000e+00 0.0000000000000000e+00 0.0000000000000000e+00  0.0000000000000000e+00 0.0000000000000000e+00 0.0000000000000000e+00  0.0000000000000000e+00 0.0000000000000000e+00 0.0000000000000000e+00  0.0000000000000000e+00 0.0000000000000000e+00 0.0000000000000000e+00  0.0000000000000000e+00 0.0000000000000000e+00 0.0000000000000000e+00  0.0000000000000000e+00 0.0000000000000000e+00 0.0000000000000000e+00  0.0000000000000000e+00 0.0000000000000000e+00 0.0000000000000000e+00  0.0000000000000000e+00 0.0000000000000000e+00 0.0000000000000000e+00  0.0000000000000000e+00 0.0000000000000000e+00 0.0000000000000000e+00  0.0000000000000000e+00 0.0000000000000000e+00 0.0000000000000000e+00  9.6000005307963643e-01 0.0000000000000000e+00 0.0000000000000000e+00  1.4400000796207768e+00 0.0000000000000000e+00 0.0000000000000000e+00  1.4400000796233547e+00 0.0000000000000000e+00 0.0000000000000000e+00  9.6000005308327596e-01 0.0000000000000000e+00 0.0000000000000000e+00  1.7645164747641588e-03 -7.3067941999637387e-01 0.0000000000000000e+00  3.3534808757646539e-01 -2.3114729922910521e-01 0.0000000000000000e+00  7.0108964297185983e-01 -3.5750286535707121e-01 0.0000000000000000e+00  1.7848865487932581e+00 -4.5997013051629003e-02 0.0000000000000000e+00  1.9494751671696007e+00 -6.8167585717856360e-02 0.0000000000000000e+00  1.4669184796677484e+00 1.7415498919146508e-01 0.0000000000000000e+00  1.3347123325897565e+00 3.5527826226682646e-01 0.0000000000000000e+00  1.3417712462281446e+00 2.8233322049966009e-01 0.0000000000000000e+00  1.3055584912337410e+00 -4.0549241108974732e-02 0.0000000000000000e+00  1.2531847358596560e+00 -2.9894064599398629e-01 0.0000000000000000e+00  1.3844153312048342e+00 -3.5608624330445854e-01 0.0000000000000000e+00  -3.1549742299391992e-01 1.3636935038208639e-01 0.0000000000000000e+00  1.6063851648438183e+00 -3.6953014319115829e-01 0.0000000000000000e+00  -2.6594961744318628e-02 4.4485949411958686e-02 0.0000000000000000e+00  2.3395074704524156e-02 2.7842843109251070e-01 0.0000000000000000e+00  1.2359144236014272e+00 -2.2520535240529241e-01 0.0000000000000000e+00  4.4955186560774030e-01 9.2627506047742711e-02 0.0000000000000000e+00  1.8486453962592879e+00 -2.1361053724428658e-01 0.0000000000000000e+00  1.3137743716960144e+00 -1.9086276860488059e-02 0.0000000000000000e+00  1.4956046294517180e+00 4.6169653895587714e-01 0.0000000000000000e+00  1.4276875222394094e+00 4.6803082085576359e-01 0.0000000000000000e+00  1.9016976938161856e+00 1.5652583443804433e-01 0.0000000000000000e+00  1.4217969395085530e+00 -4.7998686016776343e-01 0.0000000000000000e+00  9.3793500871949875e-01 -2.4536318007553144e-02 0.0000000000000000e+00  2.0625954943644147e+00 3.9572847395233690e-01 0.0000000000000000e+00  1.9230391624567178e+00 6.3593399877894252e-01 0.0000000000000000e+00  1.5337387507954141e+00 8.0067820289410085e-01 0.0000000000000000e+00  1.1690534460704498e+00 6.0162937509256431e-01 0.0000000000000000e+00  9.4477509061119813e-01 1.5169814022784431e-01 0.0000000000000000e+00  9.7626641661409164e-01 -3.5387405794707877e-01 0.0000000000000000e+00  1.2724879399225530e+00 -6.6435457392010100e-01 0.0000000000000000e+00  1.6255777319273772e+00 -6.9348479958011622e-01 0.0000000000000000e+00  1.8828553507627310e+00 -5.0897314485569267e-01 0.0000000000000000e+00  1.6484279472254830e+00 2.7188835391914534e-01 0.0000000000000000e+00  1.4807571902593952e+00 -1.6077227182692783e-01 0.0000000000000000e+00  1.5214664782562433e+00 -3.6880944823114781e-01 0.0000000000000000e+00  -1.6272610146133082e-01 1.7957163943406060e-01 0.0000000000000000e+00  1.6562065236179571e+00 4.5966294912223066e-01 0.0000000000000000e+00  1.2747493586923397e+00 2.7754237752068672e-01 0.0000000000000000e+00  1.4808787773751468e+00 -2.5218317915648258e-01 0.0000000000000000e+00  1.3646881407158333e+00 -1.2190225555933340e-01 0.0000000000000000e+00  1.1443423751142336e+00 -3.0460940407473200e-02 0.0000000000000000e+00  -5.3008780655223006e-02 3.1415234264830971e-01 0.0000000000000000e+00  1.1001886463871682e+00 -1.5873552341810077e-01 0.0000000000000000e+00  1.2383751045721954e+00 -4.9072309615137022e-01 0.0000000000000000e+00  1.5172832565805914e+00 2.1115066024471288e-01 0.0000000000000000e+00  8.3957741004184661e-01 -1.1854265761459537e-01 0.0000000000000000e+00  1.2581524039854706e+00 1.9362227328746634e-01 0.0000000000000000e+00  1.1338906467620538e+00 -1.6108438808456721e-02 0.0000000000000000e+00  -9.8732998390664559e-02 8.9457604952755690e-02 0.0000000000000000e+00  1.0289300810401956e+00 9.6124622228800943e-02 0.0000000000000000e+00  1.4963727472845441e+00 -2.2325956787664822e-01 0.0000000000000000e+00  1.0840865674970679e+00 1.8021283015157577e-01 0.0000000000000000e+00  1.3959807036006207e+00 7.7236428522182055e-01 0.0000000000000000e+00  1.8004492548397371e+00 8.7543070535663503e-01 0.0000000000000000e+00  1.2718351522251297e+00 9.8648496716545697e-01 0.0000000000000000e+00  7.7640453553388955e-01 5.6472979875313467e-01 0.0000000000000000e+00  6.4279131639233500e-01 -1.4375305707870284e-01 0.0000000000000000e+00  2.1035515546986092e+00 5.8423478333214918e-01 0.0000000000000000e+00  1.9080957564335832e+00 -2.8224806759754106e-01 0.0000000000000000e+00  1.6549180441816667e+00 1.8673399902277676e-01 0.0000000000000000e+00  9.4754878917186514e-01 -7.5480280752390394e-01 0.0000000000000000e+00  6.8461689725676556e-01 3.0552215023383700e-01 0.0000000000000000e+00  9.8906946898719095e-01 2.3478245846277915e-01 0.0000000000000000e+00  1.4748267149701479e+00 -9.9327816106449321e-02 0.0000000000000000e+00  1.0396909175548374e+00 1.2612514142649484e-01 0.0000000000000000e+00  3.6918310590898773e-01 4.0694823094020241e-02 0.0000000000000000e+00  -5.0379613771226767e-02 2.5235260392483977e-01 0.0000000000000000e+00  -6.6155870974897987e-02 2.8248313978692874e-01 0.0000000000000000e+00  1.2976360093620996e+00 1.5031447465599234e-03 0.0000000000000000e+00  1.7999766163678512e+00 7.5707402324829254e-02 0.0000000000000000e+00  -8.0873099263033196e-03 -3.1970232622751710e-03 0.0000000000000000e+00  1.4859894092644463e+00 -1.0117273893118566e+00 0.0000000000000000e+00  1.6395491821229633e+00 -4.0869902041833578e-01 0.0000000000000000e+00  8.6636661711205842e-01 2.0852817365986379e-02 0.0000000000000000e+00  8.7105342249060724e-01 -4.4784052448463788e-03 0.0000000000000000e+00  1.2631231868613821e+00 2.3274248143848106e-01 0.0000000000000000e+00  1.0944702313024666e+00 -1.1898294929352456e-01 0.0000000000000000e+00  1.4036774188522529e+00 1.0258783487298688e-02 0.0000000000000000e+00  1.4045626293949101e+00 1.8067779346064655e-01 0.0000000000000000e+00  4.5771251917391120e-01 -2.1594807789108147e-02 0.0000000000000000e+00  1.7042205261660330e+00 -3.3013440804356781e-01 0.0000000000000000e+00  -5.3414215376073410e-02 2.6743772342440287e-02 0.0000000000000000e+00  1.5636405156805240e+00 1.1535045038693477e+00 0.0000000000000000e+00  -3.8819545399111179e-02 1.8964688478064026e-01 0.0000000000000000e+00  1.9693561154499002e+00 7.8535927317721954e-01 0.0000000000000000e+00  8.7020398950599320e-01 9.7571824685301922e-01 0.0000000000000000e+00  4.3626457488136561e-01 2.5628584394552001e-01 0.0000000000000000e+00  1.0480653865740501e+00 -2.2547292046037068e-01 0.0000000000000000e+00  1.5640140565524265e+00 -8.2028823670517240e-02 0.0000000000000000e+00  9.3513491949837191e-01 -3.2605160646873471e-01 0.0000000000000000e+00  1.5231434160149948e+00 2.4278312268377877e-01 0.0000000000000000e+00  -4.2483120990734230e-02 1.1972587046968725e-01 0.0000000000000000e+00  5.8264712353500991e-01 -5.7777659068777565e-01 0.0000000000000000e+00  1.1019514309808036e+00 -2.1716127309762448e-01 0.0000000000000000e+00  1.9160842203109558e+00 -7.8133680775403147e-01 0.0000000000000000e+00  1.0102345707161482e+00 -6.1728847145799695e-02 0.0000000000000000e+00  3.7876039501864228e-01 1.7698957010459936e-02 0.0000000000000000e+00  -2.9870653160454275e-01 -7.8604984469757710e-01 0.0000000000000000e+00  1.4598424070849734e+00 -6.5086775212028591e-01 0.0000000000000000e+00  1.1394058891667784e+00 -1.0486369108982783e+00 0.0000000000000000e+00  1.3167891381479255e+00 -1.1703001886418217e-01 0.0000000000000000e+00  8.7915488858958601e-01 -1.0083861765060491e-01 0.0000000000000000e+00  1.1122227920062462e+00 1.9056349187860630e-01 0.0000000000000000e+00  7.2893588321626324e-01 -5.1547314945266140e-02 0.0000000000000000e+00  2.1744718613553305e-02 -2.9965918470128874e-02 0.0000000000000000e+00  1.3531274670733373e+00 8.6744029809709810e-03 0.0000000000000000e+00  1.7797896412489134e+00 -5.0335300947119921e-01 0.0000000000000000e+00  1.1910201715407076e+00 1.4012145294379752e-01 0.0000000000000000e+00  1.7437610340709460e+00 -9.7728115542340432e-01 0.0000000000000000e+00  1.0028768434668451e+00 1.1814389632753733e-01 0.0000000000000000e+00  1.5307932594394789e+00 2.2665571587798906e-02 0.0000000000000000e+00  1.4083124971773107e+00 5.9778378749874725e-02 0.0000000000000000e+00  1.4168609433785837e+00 1.0721299633915210e-01 0.0000000000000000e+00  1.0392308716863565e+00 1.5131984078313734e-01 0.0000000000000000e+00  -1.5734734421332619e-01 2.6598288179907476e-01 0.0000000000000000e+00  9.1208170375571085e-01 -4.4283259838005316e-02 0.0000000000000000e+00  1.3841521563420158e+00 4.5562032076986786e-01 0.0000000000000000e+00  1.2855250422601625e+00 -6.6058295714502099e-02 0.0000000000000000e+00  1.2777276160639990e+00 1.9924745820093140e-01 0.0000000000000000e+00  1.6241545817046343e+00 3.5372266502330385e-01 0.0000000000000000e+00  1.3063885986672337e+00 1.2673083480294131e-01 0.0000000000000000e+00  1.2284909413990304e+00 2.9943131296686992e-01 0.0000000000000000e+00  7.2576081928546621e-01 2.0734184166297528e-01 0.0000000000000000e+00  1.9827017381386900e+00 -3.6613733985200342e-01 0.0000000000000000e+00  -6.1441530737999871e-02 2.7340737452150099e-01 0.0000000000000000e+00  1.5220846180260179e+00 -1.5120798284498554e-02 0.0000000000000000e+00  1.6086702950113541e+00 3.9030643306424595e-01 0.0000000000000000e+00  1.5345464275425260e+00 -5.9934058097321705e-02 0.0000000000000000e+00  1.6058559113704536e+00 7.2728793642644280e-03 0.0000000000000000e+00  7.8406572995341217e-01 2.0812455929285267e-02 0.0000000000000000e+00  1.5692485420100863e+00 2.9389234919210577e-01 0.0000000000000000e+00  1.6871441373189924e+00 -3.3124279585578703e-01 0.0000000000000000e+00  1.5122750678202921e+00 -1.2213443750856268e-01 0.0000000000000000e+00  1.1034347452881807e-01 2.4725914994162795e-01 0.0000000000000000e+00  1.2613531247669678e+00 -2.8550403450370709e-01 0.0000000000000000e+00  1.5070599748193083e+00 -7.2795837788523332e-01 0.0000000000000000e+00  1.4708170141473103e+00 -3.8366148643622228e-01 0.0000000000000000e+00  8.1687257448000394e-01 3.8850883734647296e-01 0.0000000000000000e+00  1.2842056378334785e+00 1.3141195401284353e-01 0.0000000000000000e+00  8.6393947730784593e-01 -1.0453590408699151e-01 0.0000000000000000e+00  1.3373646557200234e+00 -2.0264890192724827e-01 0.0000000000000000e+00  1.9170855354204519e+00 1.3089466834841312e-01 0.0000000000000000e+00  8.5389792159199307e-01 1.4377772803319558e-01 0.0000000000000000e+00  1.0451170748390202e+00 -2.2085288789099461e-01 0.0000000000000000e+00  9.2587851536831756e-01 -1.4566120731989263e-01 0.0000000000000000e+00  -4.5762177494898504e-01 -1.6269785926311819e-01 0.0000000000000000e+00  -6.7510578416994746e-02 1.7895822509942444e-01 0.0000000000000000e+00  8.0808890424100988e-01 2.5298889162110826e-02 0.0000000000000000e+00  8.9699316617273583e-01 -4.9015873745193901e-02 0.0000000000000000e+00  1.6053021927559796e+00 7.7893765583958097e-01 0.0000000000000000e+00  1.4522904303472342e+00 9.7318410754211170e-03 0.0000000000000000e+00  5.3841334196532498e-01 4.3654822978256691e-01 0.0000000000000000e+00  6.5822151374746740e-01 -4.8408310700118001e-02 0.0000000000000000e+00  1.3106092072502538e+00 1.1903856075899986e-01 0.0000000000000000e+00  7.0837845523050480e-01 -5.0130517030418702e-02 0.0000000000000000e+00  -4.8620613425411074e-02 1.2911600248854771e-02 0.0000000000000000e+00  6.8740990040399752e-01 -3.5928820241420391e-02 0.0000000000000000e+00  5.3326713484310639e-01 -1.7851509493760712e-01 0.0000000000000000e+00  1.1331921039738884e+00 1.1822170457276227e+00 0.0000000000000000e+00  1.7315091548928807e+00 9.8957226963152400e-01 0.0000000000000000e+00  4.6817202480964676e-01 7.0696932018767722e-01 0.0000000000000000e+00  3.0084779837163378e-01 -1.9403065233025266e-01 0.0000000000000000e+00  9.3129023849468462e-01 -1.0154439242942583e-01 0.0000000000000000e+00  -2.2043556867121276e-02 5.5712209461572154e-02 0.0000000000000000e+00  1.5122700550869761e+00 3.7895855939694634e-01 0.0000000000000000e+00  -4.8602283481513700e-02 -2.4679357391366306e-02 0.0000000000000000e+00  -1.4127089929427548e-02 9.6174035727201901e-02 0.0000000000000000e+00  1.0738404046387537e+00 6.7203502872647175e-02 0.0000000000000000e+00  1.3875228790603111e+00 -1.3091344362074933e-01 0.0000000000000000e+00  7.2423526244744085e-01 -9.4361000556805164e-01 0.0000000000000000e+00  1.0733155123407145e+00 8.0732245030178953e-04 0.0000000000000000e+00  6.1350299143019693e-01 5.5732362130954796e-02 0.0000000000000000e+00  4.9609961806072683e-01 -4.7071892093600048e-02 0.0000000000000000e+00  8.9644626436055441e-01 6.7914540925683900e-02 0.0000000000000000e+00  1.3624942080578710e+00 -4.4549806698448030e-01 0.0000000000000000e+00  1.1125581116132239e+00 7.0082693892116066e-01 0.0000000000000000e+00  5.4755101253002214e-01 1.9595521825812465e-02 0.0000000000000000e+00  6.1435543346514421e-01 6.6629645017694458e-02 0.0000000000000000e+00  -1.8342817992808605e-01 8.1182084466753721e-02 0.0000000000000000e+00  6.8748173774066279e-01 -1.7167647045321938e-02 0.0000000000000000e+00  1.4001406121880959e+00 2.2249449273678365e-01 0.0000000000000000e+00  8.1360591449694075e-01 -1.5133326359140256e-01 0.0000000000000000e+00  1.9919217231851638e+00 5.2221332837062255e-02 0.0000000000000000e+00  1.4589217752101173e+00 1.6844119718663383e-03 0.0000000000000000e+00  1.6106992752509883e+00 5.9136180825593199e-01 0.0000000000000000e+00  7.7500217441710317e-01 -1.0796426810193223e-02 0.0000000000000000e+00  1.6102010985372885e+00 3.8932498571934182e-01 0.0000000000000000e+00  1.4404022681943691e+00 1.9110696006105879e-01 0.0000000000000000e+00  1.4962167676326621e+00 7.3499551020903248e-02 0.0000000000000000e+00  1.5611691481343792e+00 3.4115814585079007e-01 0.0000000000000000e+00  1.3267301260514959e+00 2.5970783437482153e-01 0.0000000000000000e+00  1.3914902448322282e+00 -1.6667750525675529e-02 0.0000000000000000e+00  1.2959572985539773e+00 -6.4127279833558815e-01 0.0000000000000000e+00  1.4152663922009634e+00 -1.6535123831140125e-01 0.0000000000000000e+00  6.7830428465744441e-01 -5.5522699751602123e-01 0.0000000000000000e+00  1.4704023966217152e+00 -6.774271788733052