<?xml version="1.0"?>
<VTKFile type="UnstructuredGrid"  version="0.1"  >
<UnstructuredGrid>
<Piece  NumberOfPoints="3852" NumberOfCells="7360">
<Points>
<DataArray  type="Float64"  NumberOfComponents="3"  format="ascii">0 0 0  0 0.41 0  2.2 0.41 0  2.2 0 0  0.2 0.15 0  0.15 0.2 0  0.2 0.25 0  0.25 0.2 0  0.2097545161007899 0.1509607359798352 0  0.219134171618224 0.153806023374423 0  0.2277785116509268 0.1584265193848371 0  0.2353553390592504 0.1646446609405956 0  0.2415734806150793 0.1722214883489481 0  0.2461939766255306 0.1808658283816641 0  0.249039264020151 0.1902454838991403 0  0.2490392640201666 0.2097545161007811 0  0.2461939766255869 0.2191341716182 0  0.2415734806151802 0.2277785116509009 0  0.2353553390594108 0.235355339059244 0  0.2277785116510524 0.2415734806150789 0  0.2191341716182962 0.2461939766255471 0  0.209754516100834 0.2490392640201561 0  0.1902454838992189 0.2490392640201666 0  0.1808658283818 0.2461939766255869 0  0.1722214883490991 0.2415734806151802 0  0.164644660940756 0.2353553390594108 0  0.1584265193849211 0.2277785116510524 0  0.1538060233744529 0.2191341716182962 0  0.150960735979844 0.209754516100834 0  0.1509607359798352 0.1902454838992101 0  0.153806023374423 0.180865828381776 0  0.1584265193848371 0.1722214883490732 0  0.1646446609405956 0.1646446609407496 0  0.1722214883489481 0.1584265193849207 0  0.1808658283816641 0.1538060233744694 0  0.1902454838991403 0.150960735979849 0  0.09999999999980318 0 0  0.1999999999996354 0 0  0.2999999999994593 0 0  0.3999999999991452 0 0  0.4999999999988309 0 0  0.599999999998495 0 0  0.6999999999982023 0 0  0.7999999999979096 0 0  0.8999999999975735 0 0  0.9999999999972848 0 0  1.099999999997053 0 0  1.199999999997309 0 0  1.299999999997566 0 0  1.399999999997821 0 0  1.49999999999809 0 0  1.599999999998377 0 0  1.69999999999859 0 0  1.799999999998877 0 0  1.899999999999145 0 0  1.999999999999386 0 0  2.099999999999693 0 0  2.2 0.08199999999981657 0  2.2 0.1639999999995688 0  2.2 0.2459999999995603 0  2.2 0.327999999999785 0  2.100000000000048 0.41 0  2.000000000000269 0.41 0  1.900000000000422 0.41 0  1.800000000000679 0.41 0  1.700000000000931 0.41 0  1.600000000001326 0.41 0  1.500000000001665 0.41 0  1.400000000002032 0.41 0  1.300000000002395 0.41 0  1.200000000002644 0.41 0  1.100000000002865 0.41 0  1.000000000002617 0.41 0  0.900000000002368 0.41 0  0.8000000000021192 0.41 0  0.7000000000018587 0.41 0  0.6000000000015786 0.41 0  0.5000000000013736 0.41 0  0.4000000000010933 0.41 0  0.3000000000008329 0.41 0  0.2000000000005997 0.41 0  0.1000000000003003 0.41 0  0 0.3280000000001975 0  0 0.2460000000004372 0  0 0.1640000000004437 0  0 0.08200000000021695 0  0.439039350479032 0.2235433210862024 0  0.3557293424662716 0.1539377961885917 0  0.3450132387946972 0.2399891502764809 0  0.2900756359792848 0.08507884665974728 0  0.2884413411145515 0.3059878288466324 0  0.2102195502178943 0.3385267178242456 0  0.137328909169326 0.3152847369018352 0  0.08490385663776813 0.2628976192695439 0  0.08063302347471875 0.188368977740952 0  0.1005937615311739 0.1162460982751979 0  0.1621860847198582 0.08598327887900903 0  0.3012864586130264 0.1926027915888804 0  1.999140000000448 0.2049999999995642 0  0.2742354912953259 0.1572259708446958 0  0.2871471664627305 0.2264358039321654 0  0.6542851578645765 0.1981889790488746 0  0.2651366296338276 0.2534562504463119 0  0.2371819217149928 0.0977949043027586 0  1.651678197071202 0.2145186615851206 0  1.349674714201118 0.2086119645070391 0  0.9627539291831038 0.2056711800839285 0  0.2360880502985623 0.2733043913425156 0  1.159884231859056 0.2050429640239795 0  0.2502927927237266 0.1358797630898622 0  0.2080582834123368 0.2835355213895352 0  0.1805439632603489 0.278338480667804 0  0.1486243506827335 0.2626014098227327 0  0.1266658889266303 0.2392753516137401 0  0.1179814841582247 0.2069380844236527 0  0.1225167704961566 0.1764957192948648 0  0.1357996569043286 0.1472158045151807 0  0.1619764829264572 0.126298308975886 0  0.1935640279204225 0.116654032325456 0  1.82457000000085 0.2346439024393236 0  0.8027657238591595 0.149277802568535 0  1.498563450727992 0.2632867809910664 0  0.2770405925201826 0.1924926016722167 0  0.470924801584011 0.09138612536042019 0  0.550693598792917 0.2898604497866635 0  0.381089831438127 0.3238078833671811 0  2.074516462495042 0.125705772324225 0  2.083599037046577 0.2769549245607841 0  0.2692296340100125 0.2210592970306522 0  0.7614733075682367 0.2839235561638241 0  1.536698221979284 0.1258192462655419 0  1.231809489345021 0.1282542717942667 0  1.054759157670174 0.1242749934189342 0  1.754535566851005 0.1223197024158991 0  1.90452621597739 0.1324728094649104 0  0.2672409321155211 0.178737994598723 0  1.254401531996246 0.2902808614622134 0  1.04350934597445 0.2986664252663559 0  0.0749710792305778 0.3208721925318313 0  0.5425289614095572 0.165152457827861 0  0.1663208394680799 0.2644065126118989 0  0.1471335176887868 0.2433864007787126 0  0.1345556779484054 0.219852318055334 0  0.131940483167677 0.1932967226753857 0  0.1941574795820069 0.2685534232066453 0  0.2226696214021025 0.1252682734732412 0  0.2193882214552426 0.2661718674478616 0  0.1396865053227576 0.1677617654469802 0  0.8749487631478475 0.295170577255529 0  1.424301820545763 0.1157348858866879 0  1.918515045506933 0.2902236143624367 0  1.744876807925144 0.306628844405037 0  0.2443979144126529 0.254353837216211 0  0.2569054246570621 0.2306780201523878 0  0.2632507216716993 0.2062296523407826 0  0.4609453431326088 0.3138128990490959 0  0.3578015395476809 0.08253318517696946 0  0.2529777826635333 0.155582948480283 0  0.1580369715200277 0.1487041474358234 0  0.652872088668587 0.3101079993636056 0  0.297147332491062 0.2558065812325378 0  0.6188247313471635 0.1101603945467571 0  0.8951149554961688 0.1123812542864208 0  1.592749166085722 0.2985190085719691 0  1.40420309431358 0.2992155383468256 0  1.649189110727275 0.1000387439201274 0  0.2301663900864273 0.1432830242131801 0  0.2064839406544439 0.1345771465164309 0  0.2548204572493643 0.1702022465417566 0  0.1606700828011604 0.2481621709908606 0  0.2605987457303776 0.1928909671966518 0  0.1826942838524941 0.2594610608897559 0  0.1456438338561037 0.2290651013631561 0  0.1387681034994896 0.2058679665896095 0  1.140902260384949 0.3081952438204152 0  2.123402621966431 0.2039515281261525 0  0.7272188829630218 0.1047469619375249 0  0.2060868819369127 0.2616331638469837 0  0.246763614216289 0.2411610007697902 0  0.1405961691450822 0.1819800466423126 0  1.149638048863541 0.08264492713269313 0  0.1809997740285721 0.1365020267363126 0  1.993198408221569 0.09755938404998035 0  0.2287111352430851 0.2547015941619741 0  0.3818716699056283 0.2060398770290832 0  0.39147508084147 0.2656155699545688 0  0.151201080877373 0.1608659990301362 0  0.0542521118046473 0.1382221876243976 0  0.06190301158313444 0.0685934933767465 0  1.317316039400266 0.1015983144534349 0  0.2176417279723976 0.1415790407114221 0  0.2401571300978209 0.1529210337009423 0  0.2618092962776011 0.3566662607419938 0  0.1941527094396574 0.1377969918002053 0  0.9590486261329707 0.3255353063371385 0  0.1708201090411339 0.1447474051814825 0  1.837592370686806 0.3302992722413595 0  0.3197015570210796 0.1212159119695666 0  0.4155281956943757 0.1409543952531078 0  0.0549491513262805 0.2307535706287103 0  0.1668210562270142 0.3605647861782867 0  0.2854688902460447 0.2093700809023571 0  2.013251581901814 0.3292746985146142 0  0.1192191106244758 0.2809901915857802 0  0.2487958366614321 0.04556523514103697 0  0.09061021186838321 0.2240174335271237 0  1.737143840576958 0.20912817770623 0  0.04515017012776967 0.2784708690411318 0  0.5347554646753627 0.08988970780599832 0  0.977104673723579 0.08241628541188413 0  0.336509991617897 0.2888965225844298 0  0.2569238041969055 0.2173711314485607 0  1.906541186051535 0.2125389476829634 0  0.1762338839607841 0.3102437166134606 0  1.449268841077636 0.201011295143529 0  0.8555371485878378 0.2099663446585434 0  1.837208236203613 0.07556229833764837 0  1.264402545318887 0.1992523923163096 0  1.068181074047183 0.2155119107017876 0  0.3158931250274742 0.3421721218291775 0  0.2731958384900449 0.2373435058667565 0  0.09875906484220501 0.1533097574901186 0  0.7355755433976705 0.2066339904079041 0  1.567440499207928 0.2049999999995983 0  1.329829828222916 0.3295825481537897 0  0.8214190147401245 0.07894167681990104 0  1.525459989258997 0.3394220200696043 0  0.1990897327079506 0.06300531675246424 0  0.244701762210989 0.3062404318132603 0  0.1033853772622983 0.3551443431224104 0  0.1178236825374896 0.07148041782551597 0  0.1558198999929474 0.04409380269139784 0  0.3389178979413869 0.198678920661321 0  0.310790717645908 0.2196004930752872 0  2.125022007676643 0.3402049371791425 0  2.130028889485561 0.06535501282233655 0  0.4821161335597635 0.1626909543876269 0  0.2838678108956019 0.1254276466262967 0  0.5062815929260498 0.2376271077316994 0  1.663059277092996 0.3422301118688678 0  1.82292665764828 0.1574809263836269 0  2.052538557905295 0.05717536030732174 0  0.3078251537889645 0.16056368457456 0  0.8108267070172145 0.3390047366820738 0  1.487254632568403 0.0703866281621833 0  0.155004430757041 0.2369517702015699 0  0.1725545045705267 0.2519594403466565 0  0.1445581653510352 0.2167994984574706 0  0.1420710285613199 0.1942747855116325 0  1.461861739291679 0.3471998553985149 0  0.2372128969196007 0.2453440460936858 0  0.1943665918892754 0.2580518465884657 0  0.2452139232912363 0.1629124725160763 0  0.2555786751481889 0.1825885041235872 0  2.14640473333793 0.2790222779730848 0  2.145589594789407 0.1282024626544199 0  0.1486651579751984 0.1726583296292201 0  0.550000000001476 0.3603327897285098 0  0.0505668771231032 0.3660023622363767 0  1.049999999997169 0.05217028468202135 0  1.244771793631775 0.05744029386223062 0  0.1356759337238615 0.1094447816941579 0  0.5872326411628903 0.2223148728195226 0  0.2168458206248643 0.2558159203714847 0  1.749999999998732 0.05166028789524129 0  0.2855257256666041 0.1763246086558152 0  1.92
[...]
<PointData  Vectors="f_22"> 
<DataArray  type="Float64"  Name="f_22"  NumberOfComponents="3" format="ascii">0.0000000000000000e+00 0.0000000000000000e+00 0.0000000000000000e+00  0.0000000000000000e+00 0.0000000000000000e+00 0.0000000000000000e+00  0.0000000000000000e+00 0.0000000000000000e+00 0.0000000000000000e+00  0.0000000000000000e+00 0.0000000000000000e+00 0.0000000000000000e+00  0.0000000000000000e+00 0.0000000000000000e+00 0.0000000000000000e+00  0.0000000000000000e+00 0.0000000000000000e+00 0.0000000000000000e+00  0.0000000000000000e+00 0.0000000000000000e+00 0.0000000000000000e+00  0.0000000000000000e+00 0.0000000000000000e+00 0.0000000000000000e+00  0.0000000000000000e+00 0.0000000000000000e+00 0.0000000000000000e+00  0.0000000000000000e+00 0.0000000000000000e+00 0.0000000000000000e+00  0.0000000000000000e+00 0.0000000000000000e+00 0.0000000000000000e+00  0.0000000000000000e+00 0.0000000000000000e+00 0.0000000000000000e+00  0.0000000000000000e+00 0.0000000000000000e+00 0.0000000000000000e+00  0.0000000000000000e+00 0.0000000000000000e+00 0.0000000000000000e+00  0.0000000000000000e+00 0.0000000000000000e+00 0.0000000000000000e+00  0.0000000000000000e+00 0.0000000000000000e+00 0.0000000000000000e+00  0.0000000000000000e+00 0.0000000000000000e+00 0.0000000000000000e+00  0.0000000000000000e+00 0.0000000000000000e+00 0.0000000000000000e+00  0.0000000000000000e+00 0.0000000000000000e+00 0.0000000000000000e+00  0.0000000000000000e+00 0.0000000000000000e+00 0.0000000000000000e+00  0.0000000000000000e+00 0.0000000000000000e+00 0.0000000000000000e+00  0.0000000000000000e+00 0.0000000000000000e+00 0.0000000000000000e+00  0.0000000000000000e+00 0.0000000000000000e+00 0.0000000000000000e+00  0.0000000000000000e+00 0.0000000000000000e+00 0.0000000000000000e+00  0.0000000000000000e+00 0.0000000000000000e+00 0.0000000000000000e+00  0.0000000000000000e+00 0.0000000000000000e+00 0.0000000000000000e+00  0.0000000000000000e+00 0.0000000000000000e+00 0.0000000000000000e+00  0.0000000000000000e+00 0.0000000000000000e+00 0.0000000000000000e+00  0.0000000000000000e+00 0.0000000000000000e+00 0.0000000000000000e+00  0.0000000000000000e+00 0.0000000000000000e+00 0.0000000000000000e+00  0.0000000000000000e+00 0.0000000000000000e+00 0.0000000000000000e+00  0.0000000000000000e+00 0.0000000000000000e+00 0.0000000000000000e+00  0.0000000000000000e+00 0.0000000000000000e+00 0.0000000000000000e+00  0.0000000000000000e+00 0.0000000000000000e+00 0.0000000000000000e+00  0.0000000000000000e+00 0.0000000000000000e+00 0.0000000000000000e+00  0.0000000000000000e+00 0.0000000000000000e+00 0.0000000000000000e+00  0.0000000000000000e+00 0.0000000000000000e+00 0.0000000000000000e+00  0.0000000000000000e+00 0.0000000000000000e+00 0.0000000000000000e+00  0.0000000000000000e+00 0.0000000000000000e+00 0.0000000000000000e+00  0.0000000000000000e+00 0.0000000000000000e+00 0.0000000000000000e+00  0.0000000000000000e+00 0.0000000000000000e+00 0.0000000000000000e+00  0.0000000000000000e+00 0.0000000000000000e+00 0.0000000000000000e+00  0.0000000000000000e+00 0.0000000000000000e+00 0.0000000000000000e+00  0.0000000000000000e+00 0.0000000000000000e+00 0.0000000000000000e+00  0.0000000000000000e+00 0.0000000000000000e+00 0.0000000000000000e+00  0.0000000000000000e+00 0.0000000000000000e+00 0.0000000000000000e+00  0.0000000000000000e+00 0.0000000000000000e+00 0.0000000000000000e+00  0.0000000000000000e+00 0.0000000000000000e+00 0.0000000000000000e+00  0.0000000000000000e+00 0.0000000000000000e+00 0.0000000000000000e+00  0.0000000000000000e+00 0.0000000000000000e+00 0.0000000000000000e+00  0.0000000000000000e+00 0.0000000000000000e+00 0.0000000000000000e+00  0.0000000000000000e+00 0.0000000000000000e+00 0.0000000000000000e+00  0.0000000000000000e+00 0.0000000000000000e+00 0.0000000000000000e+00  0.0000000000000000e+00 0.0000000000000000e+00 0.0000000000000000e+00  0.0000000000000000e+00 0.0000000000000000e+00 0.0000000000000000e+00  0.0000000000000000e+00 0.0000000000000000e+00 0.0000000000000000e+00  0.0000000000000000e+00 0.0000000000000000e+00 0.0000000000000000e+00  1.1071928778340761e+00 -4.5617919253570617e-05 0.0000000000000000e+00  1.2438777871439763e+00 -8.0866661733837114e-05 0.0000000000000000e+00  1.2438982596447139e+00 4.9516799197383943e-05 0.0000000000000000e+00  1.1073216542620816e+00 9.1460445849654961e-05 0.0000000000000000e+00  0.0000000000000000e+00 0.0000000000000000e+00 0.0000000000000000e+00  0.0000000000000000e+00 0.0000000000000000e+00 0.0000000000000000e+00  0.0000000000000000e+00 0.0000000000000000e+00 0.0000000000000000e+00  0.0000000000000000e+00 0.0000000000000000e+00 0.0000000000000000e+00  0.0000000000000000e+00 0.0000000000000000e+00 0.0000000000000000e+00  0.0000000000000000e+00 0.0000000000000000e+00 0.0000000000000000e+00  0.0000000000000000e+00 0.0000000000000000e+00 0.0000000000000000e+00  0.0000000000000000e+00 0.0000000000000000e+00 0.0000000000000000e+00  0.0000000000000000e+00 0.0000000000000000e+00 0.0000000000000000e+00  0.0000000000000000e+00 0.0000000000000000e+00 0.0000000000000000e+00  0.0000000000000000e+00 0.0000000000000000e+00 0.0000000000000000e+00  0.0000000000000000e+00 0.0000000000000000e+00 0.0000000000000000e+00  0.0000000000000000e+00 0.0000000000000000e+00 0.0000000000000000e+00  0.0000000000000000e+00 0.0000000000000000e+00 0.0000000000000000e+00  0.0000000000000000e+00 0.0000000000000000e+00 0.0000000000000000e+00  0.0000000000000000e+00 0.0000000000000000e+00 0.0000000000000000e+00  0.0000000000000000e+00 0.0000000000000000e+00 0.0000000000000000e+00  0.0000000000000000e+00 0.0000000000000000e+00 0.0000000000000000e+00  0.0000000000000000e+00 0.0000000000000000e+00 0.0000000000000000e+00  0.0000000000000000e+00 0.0000000000000000e+00 0.0000000000000000e+00  0.0000000000000000e+00 0.0000000000000000e+00 0.0000000000000000e+00  9.6000004824981677e-01 0.0000000000000000e+00 0.0000000000000000e+00  1.4400000723760473e+00 0.0000000000000000e+00 0.0000000000000000e+00  1.4400000723786262e+00 0.0000000000000000e+00 0.0000000000000000e+00  9.6000004825345642e-01 0.0000000000000000e+00 0.0000000000000000e+00  1.3193701483199444e-01 -2.4313128359671374e-01 0.0000000000000000e+00  1.4869186015078009e-01 1.3744323431392325e-01 0.0000000000000000e+00  2.0056793987254767e-01 1.8135613154103999e-01 0.0000000000000000e+00  1.8292410024665131e+00 -5.7548091940296947e-02 0.0000000000000000e+00  1.9763942142203856e+00 1.2999042788260448e-01 0.0000000000000000e+00  1.4713044819890184e+00 2.2898463868221311e-01 0.0000000000000000e+00  1.3170283313758770e+00 3.5964693585292401e-01 0.0000000000000000e+00  1.3320853242142796e+00 2.6277592156084700e-01 0.0000000000000000e+00  1.3056967252467628e+00 -6.9563515203618545e-02 0.0000000000000000e+00  1.2631544913100563e+00 -3.2264615951271663e-01 0.0000000000000000e+00  1.4074226075167908e+00 -3.7222969662298500e-01 0.0000000000000000e+00  -2.3339835821757465e-01 8.2751107029093718e-02 0.0000000000000000e+00  1.2461120517175319e+00 -1.7871323382755474e-03 0.0000000000000000e+00  3.4135849690976654e-02 -5.1797486176615629e-02 0.0000000000000000e+00  -7.4807406647053709e-02 1.5432736101326180e-01 0.0000000000000000e+00  1.0396250742133359e+00 5.2457949062202236e-01 0.0000000000000000e+00  2.2413069584680112e-01 7.6693858001725040e-02 0.0000000000000000e+00  1.8776113024561227e+00 -2.3190866900705431e-01 0.0000000000000000e+00  1.2048278382297621e+00 4.3452367307534420e-02 0.0000000000000000e+00  1.3864245660620587e+00 -4.2302133950413372e-02 0.0000000000000000e+00  1.3788766314729681e+00 -8.7912399835883670e-02 0.0000000000000000e+00  1.6893160304885753e+00 2.2754118374398749e-01 0.0000000000000000e+00  1.4835872547190521e+00 6.7057289731671452e-02 0.0000000000000000e+00  9.2745936930923878e-01 -5.5758327528225238e-02 0.0000000000000000e+00  1.9962034745081361e+00 4.6120991772282344e-01 0.0000000000000000e+00  1.8632261158614192e+00 6.5789681282504386e-01 0.0000000000000000e+00  1.4937555988756706e+00 7.8401218459895727e-01 0.0000000000000000e+00  1.1478155104694994e+00 5.6906450443070422e-01 0.0000000000000000e+00  9.3917703795720631e-01 1.1261632423069620e-01 0.0000000000000000e+00  9.8277180491624627e-01 -3.9165106688417806e-01 0.0000000000000000e+00  1.2879198133663057e+00 -6.9485024524904104e-01 0.0000000000000000e+00  1.6463491242770663e+00 -7.1458984049622998e-01 0.0000000000000000e+00  1.9041224636051872e+00 -5.2405458709576358e-01 0.0000000000000000e+00  1.2520388766008037e+00 -1.1572261028807457e-02 0.0000000000000000e+00  9.2824219162313837e-01 -5.9888972669965264e-03 0.0000000000000000e+00  1.2609749162807919e+00 1.3164672785824236e-02 0.0000000000000000e+00  -1.3510241639629886e-01 2.9279172464266281e-02 0.0000000000000000e+00  1.8711851399920885e+00 9.5577115186155637e-02 0.0000000000000000e+00  1.4690350878544642e+00 -1.4262472860431008e-01 0.0000000000000000e+00  1.8878449240689090e+00 -1.3657905610744847e-01 0.0000000000000000e+00  1.2260319827435711e+00 -2.2477519488693623e-04 0.0000000000000000e+00  1.2330780162394817e+00 -1.5006091869933818e-04 0.0000000000000000e+00  -7.5987847544244397e-02 1.4299666386632601e-01 0.0000000000000000e+00  1.8551197540669058e+00 -3.3479367754945405e-01 0.0000000000000000e+00  1.3140005645778421e+00 -2.8945731278530451e-03 0.0000000000000000e+00  1.3284672377319395e+00 -1.0421821021529440e-01 0.0000000000000000e+00  1.5417783000353327e+00 1.1114189341929623e-01 0.0000000000000000e+00  1.2028789191927314e+00 -5.7197436665296303e-04 0.0000000000000000e+00  1.2288525676238493e+00 -1.7660867845040488e-03 0.0000000000000000e+00  -8.9448726317595456e-02 -5.3886976620990963e-02 0.0000000000000000e+00  1.4691491179132190e+00 -4.6246411932624023e-03 0.0000000000000000e+00  1.2923914877452616e+00 4.6111412094405085e-02 0.0000000000000000e+00  1.0786279959590914e+00 1.7275729821293745e-01 0.0000000000000000e+00  8.0256140473592941e-01 -6.2245430656527052e-02 0.0000000000000000e+00  1.7429698750887770e+00 8.6891728789550027e-01 0.0000000000000000e+00  1.2358255526473856e+00 9.5292512142272801e-01 0.0000000000000000e+00  7.6105129956723816e-01 5.2180626527119456e-01 0.0000000000000000e+00  6.4434776175983166e-01 -1.8712617730433914e-01 0.0000000000000000e+00  2.0032426201969558e+00 6.1011056544989239e-01 0.0000000000000000e+00  1.9188602986530292e+00 -2.9722701099928217e-01 0.0000000000000000e+00  1.4433063506861907e+00 2.2143725631860706e-01 0.0000000000000000e+00  9.6173380730845215e-01 -7.9142554240199325e-01 0.0000000000000000e+00  1.3765989949596704e+00 -1.0569947783112515e-01 0.0000000000000000e+00  1.2715984149317270e+00 -4.3497864126344592e-02 0.0000000000000000e+00  1.2236022416147869e+00 -3.9425989955174899e-03 0.0000000000000000e+00  1.1947167606777271e+00 6.8061927255267576e-03 0.0000000000000000e+00  2.2327162341373488e-01 5.1434162409280407e-02 0.0000000000000000e+00  -6.1290534496227636e-02 1.2654163825509404e-01 0.0000000000000000e+00  -5.7538723686099011e-02 7.8865707817698361e-02 0.0000000000000000e+00  1.7432358648031725e+00 -3.2190180550356656e-01 0.0000000000000000e+00  1.7941586590228249e+00 4.3780833324720464e-02 0.0000000000000000e+00  7.3247023697685662e-03 -7.6585383006190638e-02 0.0000000000000000e+00  1.5074776278275757e+00 -1.0374577563423040e+00 0.0000000000000000e+00  1.5878910755041475e+00 3.9323718100635521e-02 0.0000000000000000e+00  3.9975682962920711e-01 9.6867436123820205e-02 0.0000000000000000e+00  1.7093185178843431e+00 4.8183845334534930e-01 0.0000000000000000e+00  1.3970507011604132e+00 1.8936689170958660e-02 0.0000000000000000e+00  1.2488582953351992e+00 7.7062075465343286e-05 0.0000000000000000e+00  1.2308551801830945e+00 1.0383988091315609e-01 0.0000000000000000e+00  1.1720114906334225e+00 -6.7370696387121240e-03 0.0000000000000000e+00  4.4570382204795944e-01 -3.0456559314597748e-02 0.0000000000000000e+00  1.7127908048239500e+00 -3.3850918707556582e-01 0.0000000000000000e+00  -6.4806980883592005e-02 -9.3748041189168171e-02 0.0000000000000000e+00  1.5101529162796987e+00 1.1220872890866798e+00 0.0000000000000000e+00  -4.6189719354001610e-02 -3.1325508232973713e-03 0.0000000000000000e+00  1.8697956665426805e+00 7.7556455603171004e-01 0.0000000000000000e+00  8.4350325510580026e-01 9.3172986274599245e-01 0.0000000000000000e+00  4.3013442192303580e-01 2.0909020967650049e-01 0.0000000000000000e+00  1.2836641927730885e+00 -2.7375548830649032e-02 0.0000000000000000e+00  1.2462365354661629e+00 -1.9621275255372211e-04 0.0000000000000000e+00  1.2469006605021704e+00 6.6928532262794972e-03 0.0000000000000000e+00  1.3464919810242237e+00 2.5245165019675680e-01 0.0000000000000000e+00  -5.9634141041948370e-02 8.1687873937213731e-02 0.0000000000000000e+00  5.9252990947381523e-01 -6.2024833360332177e-01 0.0000000000000000e+00  9.2592664851623607e-01 -9.5437871465620147e-02 0.0000000000000000e+00  1.9368789931337247e+00 -7.9632838208324308e-01 0.0000000000000000e+00  1.1711211099971610e+00 -5.4467483080416698e-04 0.0000000000000000e+00  2.5879877005850782e-01 3.4368418237367776e-02 0.0000000000000000e+00  -3.6291947118522033e-01 1.8760515226535557e-01 0.0000000000000000e+00  1.2700139638274035e+00 -1.0255041684510594e-01 0.0000000000000000e+00  1.1592464831268363e+00 -1.0807147816291773e+00 0.0000000000000000e+00  1.3193057858350594e+00 -1.3504538632362781e-01 0.0000000000000000e+00  8.8395025757212164e-01 -1.1200630337108970e-01 0.0000000000000000e+00  1.2113671128778380e+00 -2.2146936568333678e-02 0.0000000000000000e+00  7.2236833245797416e-01 -5.6673274589962762e-02 0.0000000000000000e+00  1.2941535443736676e-02 -5.4770871618787222e-02 0.0000000000000000e+00  1.4286875499150462e+00 8.7745001659702809e-02 0.0000000000000000e+00  1.7933121311930953e+00 -5.1215555837948468e-01 0.0000000000000000e+00  9.6909392576637055e-01 8.1942798146442217e-02 0.0000000000000000e+00  1.7659348407929145e+00 -9.9605850028904519e-01 0.0000000000000000e+00  1.1031991582732725e+00 -3.2682783269852491e-03 0.0000000000000000e+00  1.5787037628064995e+00 5.8555369668290551e-02 0.0000000000000000e+00  6.0384346618293905e-01 5.1347588852046301e-02 0.0000000000000000e+00  1.4140325335789714e+00 8.8523290681342098e-02 0.0000000000000000e+00  1.0384125974447604e+00 1.6875486986208502e-01 0.0000000000000000e+00  -1.5290425372291097e-01 1.1638209661687340e-01 0.0000000000000000e+00  1.1014152913401605e+00 -6.9333036127825010e-05 0.0000000000000000e+00  1.3636759145601132e+00 4.4280014112802185e-01 0.0000000000000000e+00  1.3288473680197230e+00 -7.4717330229926202e-02 0.0000000000000000e+00  1.2707551797780632e+00 1.6983849396046255e-01 0.0000000000000000e+00  1.2382405640026570e+00 -1.6038541667290736e-02 0.0000000000000000e+00  1.3036670147488159e+00 1.1629315294020590e-01 0.0000000000000000e+00  1.8577341050450635e+00 2.8707851121881317e-01 0.0000000000000000e+00  1.0234930581190311e+00 9.8928041602224112e-02 0.0000000000000000e+00  1.9221260104566076e+00 1.3670371108971555e-02 0.0000000000000000e+00  -4.2488902186308880e-02 1.0205124243764473e-01 0.0000000000000000e+00  1.2449441424234022e+00 -6.9223163832694626e-03 0.0000000000000000e+00  1.5811837370186379e+00 4.1985039539412494e-01 0.0000000000000000e+00  1.2393052987715090e+00 -7.5052181341545315e-02 0.0000000000000000e+00  1.5535104233370653e+00 -3.7172988120417405e-01 0.0000000000000000e+00  1.0686086617439532e+00 2.1726543639643997e-04 0.0000000000000000e+00  1.2711740208059048e+00 9.7521048463557636e-02 0.0000000000000000e+00  1.3129828182099024e+00 4.5335750043324984e-02 0.0000000000000000e+00  1.6853352422585028e+00 1.9896895454937460e-02 0.0000000000000000e+00  -1.2903611257652371e-02 1.4023732377549902e-01 0.0000000000000000e+00  1.2682910781865691e+00 -3.1561208084551406e-01 0.0000000000000000e+00  8.0927118474359661e-01 4.0636167077500912e-01 0.0000000000000000e+00  1.1966739847383621e+00 2.5073192109926902e-02 0.0000000000000000e+00  9.5456978580561191e-01 6.9556734391155395e-02 0.0000000000000000e+00  1.0833627565643742e+00 -6.3411279439946733e-02 0.0000000000000000e+00  1.0297720584472467e+00 8.7239805349332098e-03 0.0000000000000000e+00  1.3694074349469598e+00 -2.1358564381830916e-01 0.0000000000000000e+00  1.9027901085368268e+00 2.4813566438986784e-01 0.0000000000000000e+00  8.4777349535255586e-01 1.4298899523026040e-01 0.0000000000000000e+00  1.0604241007639714e+00 -2.3615648936002015e-01 0.0000000000000000e+00  9.5195241231133754e-01 -1.5398399886009514e-01 0.0000000000000000e+00  -3.4202132371333499e-01 1.8066972195524794e-01 0.0000000000000000e+00  -1.5139572499186690e-01 1.7372037974877599e-01 0.0000000000000000e+00  1.0304896434128896e+00 8.4111377414383622e-05 0.0000000000000000e+00  9.9558385107893455e-01 -1.2157238238177882e-05 0.0000000000000000e+00  2.1352889876753711e-01 -2.7392072987322946e-01 0.0000000000000000e+00  1.4837076257119979e+00 -2.3289379584292929e-02 0.0000000000000000e+00  7.2116124426092298e-01 -5.5003584118963189e-01 0.0000000000000000e+00  1.0058200403522135e+00 4.2248053787967933e-03 0.0000000000000000e+00  1.2267283839543390e+00 -7.6562436996725769e-03 0.0000000000000000e+00  9.2083626564939680e-01 -3.7239589577368487e-05 0.0000000000000000e+00  -4.1080344522024205e-03 3.6727026473576292e-02 0.0000000000000000e+00  9.0587414368655472e-01 -1.4349644862754951e-01 0.0000000000000000e+00  9.7688740598195389e-01 -2.8625342155745671e-02 0.0000000000000000e+00  1.0932689744533979e+00 1.1396956637692668e+00 0.0000000000000000e+00  1.6535810626858767e+00 9.6016644261286199e-01 0.0000000000000000e+00  4.5234121635533281e-01 6.5902666465661452e-01 0.0000000000000000e+00  3.0392789943075760e-01 -2.4038463752373956e-01 0.0000000000000000e+00  9.3163367065159708e-01 3.6696275086566137e-02 0.0000000000000000e+00  -4.1795502648138388e-02 5.3602730951474283e-02 0.0000000000000000e+00  1.3740632282480536e+00 3.6869379859013407e-01 0.0000000000000000e+00  -6.1304965612749354e-02 -8.1138505760392887e-02 0.0000000000000000e+00  -4.0661869819544054e-02 -5.9278999446826408e-02 0.0000000000000000e+00  1.2313251671892080e+00 3.4740796573235585e-05 0.0000000000000000e+00  1.2287185028124521e+00 -6.2774612178755705e-05 0.0000000000000000e+00  7.4087637274074847e-01 -9.8074517365942782e-01 0.0000000000000000e+00  1.0213138814101284e+00 -4.9564468140769105e-02 0.0000000000000000e+00  6.1157575635882910e-01 5.2772267272420396e-02 0.0000000000000000e+00  4.9254956599594263e-01 2.3635842990119529e-02 0.0000000000000000e+00  7.5686232738186887e-01 -4.3785122218519004e-02 0.0000000000000000e+00  1.3795349179728182e+00 -4.6782055923569749e-01 0.0000000000000000e+00  1.3070351447763157e-01 -1.5101816102091592e-01 0.0000000000000000e+00  4.2205413801346658e-01 3.2019442920517269e-02 0.0000000000000000e+00  8.6363897873503959e-01 1.9363872081927789e-03 0.0000000000000000e+00  -1.3638783433827284e-01 -9.8970590154612015e-03 0.0000000000000000e+00  9.9171495555509304e-01 -5.1580453541127523e-04 0.0000000000000000e+00  1.5553877114661083e+00 6.3629799390486658e-02 0.0000000000000000e+00  8.8862709997258471e-01 -1.7142211934145911e-02 0.0000000000000000e+00  1.7558150782450046e+00 1.6985400928489758e-01 0.0000000000000000e+00  1.4587468180047560e+00 -1.3155107195048395e-02 0.0000000000000000e+00  1.5738371661281416e+00 5.9446005471445473e-01 0.0000000000000000e+00  1.1289392983814304e+00 -1.2054267815965457e-01 0.0000000000000000e+00  1.2071807174846361e+00 1.7094184788235912e-02 0.0000000000000000e+00  1.2239793250561977e+00 1.2051331805772617e-02 0.0000000000000000e+00  1.2315430958609290e+00 2.2838136953431079e-02 0.0000000000000000e+00  1.2058982493980754e+00 -6.5795377134331198e-03 0.0000000000000000e+00  1.1922362713373273e+00 4.6123876526993676e-03 0.0000000000000000e+00  1.1884082398297968e+00 -1.3233984870740528e-01 0.0000000000000000e+00  1.5083654895794694e+00 -7.9825988562412409e-02 0.0000000000000000e+00  1.4846755126943090e+00 -6.0106087959947957e-02 0.0000000000000000e+00  1.1642723676407354e+00 -3.3964428153272420e-02 0.0000000000000000e+00  1.7271878890812886e+00 8.9056638