<?xml version="1.0"?>
<VTKFile type="UnstructuredGrid"  version="0.1"  >
<UnstructuredGrid>
<Piece  NumberOfPoints="3852" NumberOfCells="7360">
<Points>
<DataArray  type="Float64"  NumberOfComponents="3"  format="ascii">0 0 0  0 0.41 0  2.2 0.41 0  2.2 0 0  0.2 0.15 0  0.15 0.2 0  0.2 0.25 0  0.25 0.2 0  0.2097545161007899 0.1509607359798352 0  0.219134171618224 0.153806023374423 0  0.2277785116509268 0.1584265193848371 0  0.2353553390592504 0.1646446609405956 0  0.2415734806150793 0.1722214883489481 0  0.2461939766255306 0.1808658283816641 0  0.249039264020151 0.1902454838991403 0  0.2490392640201666 0.2097545161007811 0  0.2461939766255869 0.2191341716182 0  0.2415734806151802 0.2277785116509009 0  0.2353553390594108 0.235355339059244 0  0.2277785116510524 0.2415734806150789 0  0.2191341716182962 0.2461939766255471 0  0.209754516100834 0.2490392640201561 0  0.1902454838992189 0.2490392640201666 0  0.1808658283818 0.2461939766255869 0  0.1722214883490991 0.2415734806151802 0  0.164644660940756 0.2353553390594108 0  0.1584265193849211 0.2277785116510524 0  0.1538060233744529 0.2191341716182962 0  0.150960735979844 0.209754516100834 0  0.1509607359798352 0.1902454838992101 0  0.153806023374423 0.180865828381776 0  0.1584265193848371 0.1722214883490732 0  0.1646446609405956 0.1646446609407496 0  0.1722214883489481 0.1584265193849207 0  0.1808658283816641 0.1538060233744694 0  0.1902454838991403 0.150960735979849 0  0.09999999999980318 0 0  0.1999999999996354 0 0  0.2999999999994593 0 0  0.3999999999991452 0 0  0.4999999999988309 0 0  0.599999999998495 0 0  0.6999999999982023 0 0  0.7999999999979096 0 0  0.8999999999975735 0 0  0.9999999999972848 0 0  1.099999999997053 0 0  1.199999999997309 0 0  1.299999999997566 0 0  1.399999999997821 0 0  1.49999999999809 0 0  1.599999999998377 0 0  1.69999999999859 0 0  1.799999999998877 0 0  1.899999999999145 0 0  1.999999999999386 0 0  2.099999999999693 0 0  2.2 0.08199999999981657 0  2.2 0.1639999999995688 0  2.2 0.2459999999995603 0  2.2 0.327999999999785 0  2.100000000000048 0.41 0  2.000000000000269 0.41 0  1.900000000000422 0.41 0  1.800000000000679 0.41 0  1.700000000000931 0.41 0  1.600000000001326 0.41 0  1.500000000001665 0.41 0  1.400000000002032 0.41 0  1.300000000002395 0.41 0  1.200000000002644 0.41 0  1.100000000002865 0.41 0  1.000000000002617 0.41 0  0.900000000002368 0.41 0  0.8000000000021192 0.41 0  0.7000000000018587 0.41 0  0.6000000000015786 0.41 0  0.5000000000013736 0.41 0  0.4000000000010933 0.41 0  0.3000000000008329 0.41 0  0.2000000000005997 0.41 0  0.1000000000003003 0.41 0  0 0.3280000000001975 0  0 0.2460000000004372 0  0 0.1640000000004437 0  0 0.08200000000021695 0  0.439039350479032 0.2235433210862024 0  0.3557293424662716 0.1539377961885917 0  0.3450132387946972 0.2399891502764809 0  0.2900756359792848 0.08507884665974728 0  0.2884413411145515 0.3059878288466324 0  0.2102195502178943 0.3385267178242456 0  0.137328909169326 0.3152847369018352 0  0.08490385663776813 0.2628976192695439 0  0.08063302347471875 0.188368977740952 0  0.1005937615311739 0.1162460982751979 0  0.1621860847198582 0.08598327887900903 0  0.3012864586130264 0.1926027915888804 0  1.999140000000448 0.2049999999995642 0  0.2742354912953259 0.1572259708446958 0  0.2871471664627305 0.2264358039321654 0  0.6542851578645765 0.1981889790488746 0  0.2651366296338276 0.2534562504463119 0  0.2371819217149928 0.0977949043027586 0  1.651678197071202 0.2145186615851206 0  1.349674714201118 0.2086119645070391 0  0.9627539291831038 0.2056711800839285 0  0.2360880502985623 0.2733043913425156 0  1.159884231859056 0.2050429640239795 0  0.2502927927237266 0.1358797630898622 0  0.2080582834123368 0.2835355213895352 0  0.1805439632603489 0.278338480667804 0  0.1486243506827335 0.2626014098227327 0  0.1266658889266303 0.2392753516137401 0  0.1179814841582247 0.2069380844236527 0  0.1225167704961566 0.1764957192948648 0  0.1357996569043286 0.1472158045151807 0  0.1619764829264572 0.126298308975886 0  0.1935640279204225 0.116654032325456 0  1.82457000000085 0.2346439024393236 0  0.8027657238591595 0.149277802568535 0  1.498563450727992 0.2632867809910664 0  0.2770405925201826 0.1924926016722167 0  0.470924801584011 0.09138612536042019 0  0.550693598792917 0.2898604497866635 0  0.381089831438127 0.3238078833671811 0  2.074516462495042 0.125705772324225 0  2.083599037046577 0.2769549245607841 0  0.2692296340100125 0.2210592970306522 0  0.7614733075682367 0.2839235561638241 0  1.536698221979284 0.1258192462655419 0  1.231809489345021 0.1282542717942667 0  1.054759157670174 0.1242749934189342 0  1.754535566851005 0.1223197024158991 0  1.90452621597739 0.1324728094649104 0  0.2672409321155211 0.178737994598723 0  1.254401531996246 0.2902808614622134 0  1.04350934597445 0.2986664252663559 0  0.0749710792305778 0.3208721925318313 0  0.5425289614095572 0.165152457827861 0  0.1663208394680799 0.2644065126118989 0  0.1471335176887868 0.2433864007787126 0  0.1345556779484054 0.219852318055334 0  0.131940483167677 0.1932967226753857 0  0.1941574795820069 0.2685534232066453 0  0.2226696214021025 0.1252682734732412 0  0.2193882214552426 0.2661718674478616 0  0.1396865053227576 0.1677617654469802 0  0.8749487631478475 0.295170577255529 0  1.424301820545763 0.1157348858866879 0  1.918515045506933 0.2902236143624367 0  1.744876807925144 0.306628844405037 0  0.2443979144126529 0.254353837216211 0  0.2569054246570621 0.2306780201523878 0  0.2632507216716993 0.2062296523407826 0  0.4609453431326088 0.3138128990490959 0  0.3578015395476809 0.08253318517696946 0  0.2529777826635333 0.155582948480283 0  0.1580369715200277 0.1487041474358234 0  0.652872088668587 0.3101079993636056 0  0.297147332491062 0.2558065812325378 0  0.6188247313471635 0.1101603945467571 0  0.8951149554961688 0.1123812542864208 0  1.592749166085722 0.2985190085719691 0  1.40420309431358 0.2992155383468256 0  1.649189110727275 0.1000387439201274 0  0.2301663900864273 0.1432830242131801 0  0.2064839406544439 0.1345771465164309 0  0.2548204572493643 0.1702022465417566 0  0.1606700828011604 0.2481621709908606 0  0.2605987457303776 0.1928909671966518 0  0.1826942838524941 0.2594610608897559 0  0.1456438338561037 0.2290651013631561 0  0.1387681034994896 0.2058679665896095 0  1.140902260384949 0.3081952438204152 0  2.123402621966431 0.2039515281261525 0  0.7272188829630218 0.1047469619375249 0  0.2060868819369127 0.2616331638469837 0  0.246763614216289 0.2411610007697902 0  0.1405961691450822 0.1819800466423126 0  1.149638048863541 0.08264492713269313 0  0.1809997740285721 0.1365020267363126 0  1.993198408221569 0.09755938404998035 0  0.2287111352430851 0.2547015941619741 0  0.3818716699056283 0.2060398770290832 0  0.39147508084147 0.2656155699545688 0  0.151201080877373 0.1608659990301362 0  0.0542521118046473 0.1382221876243976 0  0.06190301158313444 0.0685934933767465 0  1.317316039400266 0.1015983144534349 0  0.2176417279723976 0.1415790407114221 0  0.2401571300978209 0.1529210337009423 0  0.2618092962776011 0.3566662607419938 0  0.1941527094396574 0.1377969918002053 0  0.9590486261329707 0.3255353063371385 0  0.1708201090411339 0.1447474051814825 0  1.837592370686806 0.3302992722413595 0  0.3197015570210796 0.1212159119695666 0  0.4155281956943757 0.1409543952531078 0  0.0549491513262805 0.2307535706287103 0  0.1668210562270142 0.3605647861782867 0  0.2854688902460447 0.2093700809023571 0  2.013251581901814 0.3292746985146142 0  0.1192191106244758 0.2809901915857802 0  0.2487958366614321 0.04556523514103697 0  0.09061021186838321 0.2240174335271237 0  1.737143840576958 0.20912817770623 0  0.04515017012776967 0.2784708690411318 0  0.5347554646753627 0.08988970780599832 0  0.977104673723579 0.08241628541188413 0  0.336509991617897 0.2888965225844298 0  0.2569238041969055 0.2173711314485607 0  1.906541186051535 0.2125389476829634 0  0.1762338839607841 0.3102437166134606 0  1.449268841077636 0.201011295143529 0  0.8555371485878378 0.2099663446585434 0  1.837208236203613 0.07556229833764837 0  1.264402545318887 0.1992523923163096 0  1.068181074047183 0.2155119107017876 0  0.3158931250274742 0.3421721218291775 0  0.2731958384900449 0.2373435058667565 0  0.09875906484220501 0.1533097574901186 0  0.7355755433976705 0.2066339904079041 0  1.567440499207928 0.2049999999995983 0  1.329829828222916 0.3295825481537897 0  0.8214190147401245 0.07894167681990104 0  1.525459989258997 0.3394220200696043 0  0.1990897327079506 0.06300531675246424 0  0.244701762210989 0.3062404318132603 0  0.1033853772622983 0.3551443431224104 0  0.1178236825374896 0.07148041782551597 0  0.1558198999929474 0.04409380269139784 0  0.3389178979413869 0.198678920661321 0  0.310790717645908 0.2196004930752872 0  2.125022007676643 0.3402049371791425 0  2.130028889485561 0.06535501282233655 0  0.4821161335597635 0.1626909543876269 0  0.2838678108956019 0.1254276466262967 0  0.5062815929260498 0.2376271077316994 0  1.663059277092996 0.3422301118688678 0  1.82292665764828 0.1574809263836269 0  2.052538557905295 0.05717536030732174 0  0.3078251537889645 0.16056368457456 0  0.8108267070172145 0.3390047366820738 0  1.487254632568403 0.0703866281621833 0  0.155004430757041 0.2369517702015699 0  0.1725545045705267 0.2519594403466565 0  0.1445581653510352 0.2167994984574706 0  0.1420710285613199 0.1942747855116325 0  1.461861739291679 0.3471998553985149 0  0.2372128969196007 0.2453440460936858 0  0.1943665918892754 0.2580518465884657 0  0.2452139232912363 0.1629124725160763 0  0.2555786751481889 0.1825885041235872 0  2.14640473333793 0.2790222779730848 0  2.145589594789407 0.1282024626544199 0  0.1486651579751984 0.1726583296292201 0  0.550000000001476 0.3603327897285098 0  0.0505668771231032 0.3660023622363767 0  1.049999999997169 0.05217028468202135 0  1.244771793631775 0.05744029386223062 0  0.1356759337238615 0.1094447816941579 0  0.5872326411628903 0.2223148728195226 0  0.2168458206248643 0.2558159203714847 0  1.749999999998732 0.05166028789524129 0  0.2855257256666041 0.1763246086558152 0  1.92
[...]
<PointData  Vectors="f_22"> 
<DataArray  type="Float64"  Name="f_22"  NumberOfComponents="3" format="ascii">0.0000000000000000e+00 0.0000000000000000e+00 0.0000000000000000e+00  0.0000000000000000e+00 0.0000000000000000e+00 0.0000000000000000e+00  0.0000000000000000e+00 0.0000000000000000e+00 0.0000000000000000e+00  0.0000000000000000e+00 0.0000000000000000e+00 0.0000000000000000e+00  0.0000000000000000e+00 0.0000000000000000e+00 0.0000000000000000e+00  0.0000000000000000e+00 0.0000000000000000e+00 0.0000000000000000e+00  0.0000000000000000e+00 0.0000000000000000e+00 0.0000000000000000e+00  0.0000000000000000e+00 0.0000000000000000e+00 0.0000000000000000e+00  0.0000000000000000e+00 0.0000000000000000e+00 0.0000000000000000e+00  0.0000000000000000e+00 0.0000000000000000e+00 0.0000000000000000e+00  0.0000000000000000e+00 0.0000000000000000e+00 0.0000000000000000e+00  0.0000000000000000e+00 0.0000000000000000e+00 0.0000000000000000e+00  0.0000000000000000e+00 0.0000000000000000e+00 0.0000000000000000e+00  0.0000000000000000e+00 0.0000000000000000e+00 0.0000000000000000e+00  0.0000000000000000e+00 0.0000000000000000e+00 0.0000000000000000e+00  0.0000000000000000e+00 0.0000000000000000e+00 0.0000000000000000e+00  0.0000000000000000e+00 0.0000000000000000e+00 0.0000000000000000e+00  0.0000000000000000e+00 0.0000000000000000e+00 0.0000000000000000e+00  0.0000000000000000e+00 0.0000000000000000e+00 0.0000000000000000e+00  0.0000000000000000e+00 0.0000000000000000e+00 0.0000000000000000e+00  0.0000000000000000e+00 0.0000000000000000e+00 0.0000000000000000e+00  0.0000000000000000e+00 0.0000000000000000e+00 0.0000000000000000e+00  0.0000000000000000e+00 0.0000000000000000e+00 0.0000000000000000e+00  0.0000000000000000e+00 0.0000000000000000e+00 0.0000000000000000e+00  0.0000000000000000e+00 0.0000000000000000e+00 0.0000000000000000e+00  0.0000000000000000e+00 0.0000000000000000e+00 0.0000000000000000e+00  0.0000000000000000e+00 0.0000000000000000e+00 0.0000000000000000e+00  0.0000000000000000e+00 0.0000000000000000e+00 0.0000000000000000e+00  0.0000000000000000e+00 0.0000000000000000e+00 0.0000000000000000e+00  0.0000000000000000e+00 0.0000000000000000e+00 0.0000000000000000e+00  0.0000000000000000e+00 0.0000000000000000e+00 0.0000000000000000e+00  0.0000000000000000e+00 0.0000000000000000e+00 0.0000000000000000e+00  0.0000000000000000e+00 0.0000000000000000e+00 0.0000000000000000e+00  0.0000000000000000e+00 0.0000000000000000e+00 0.0000000000000000e+00  0.0000000000000000e+00 0.0000000000000000e+00 0.0000000000000000e+00  0.0000000000000000e+00 0.0000000000000000e+00 0.0000000000000000e+00  0.0000000000000000e+00 0.0000000000000000e+00 0.0000000000000000e+00  0.0000000000000000e+00 0.0000000000000000e+00 0.0000000000000000e+00  0.0000000000000000e+00 0.0000000000000000e+00 0.0000000000000000e+00  0.0000000000000000e+00 0.0000000000000000e+00 0.0000000000000000e+00  0.0000000000000000e+00 0.0000000000000000e+00 0.0000000000000000e+00  0.0000000000000000e+00 0.0000000000000000e+00 0.0000000000000000e+00  0.0000000000000000e+00 0.0000000000000000e+00 0.0000000000000000e+00  0.0000000000000000e+00 0.0000000000000000e+00 0.0000000000000000e+00  0.0000000000000000e+00 0.0000000000000000e+00 0.0000000000000000e+00  0.0000000000000000e+00 0.0000000000000000e+00 0.0000000000000000e+00  0.0000000000000000e+00 0.0000000000000000e+00 0.0000000000000000e+00  0.0000000000000000e+00 0.0000000000000000e+00 0.0000000000000000e+00  0.0000000000000000e+00 0.0000000000000000e+00 0.0000000000000000e+00  0.0000000000000000e+00 0.0000000000000000e+00 0.0000000000000000e+00  0.0000000000000000e+00 0.0000000000000000e+00 0.0000000000000000e+00  0.0000000000000000e+00 0.0000000000000000e+00 0.0000000000000000e+00  0.0000000000000000e+00 0.0000000000000000e+00 0.0000000000000000e+00  0.0000000000000000e+00 0.0000000000000000e+00 0.0000000000000000e+00  0.0000000000000000e+00 0.0000000000000000e+00 0.0000000000000000e+00  0.0000000000000000e+00 0.0000000000000000e+00 0.0000000000000000e+00  0.0000000000000000e+00 0.0000000000000000e+00 0.0000000000000000e+00  1.1061696233893075e+00 -3.7485572256686639e-02 0.0000000000000000e+00  1.5532630769411930e+00 -9.3336510959757729e-02 0.0000000000000000e+00  1.2144352087075618e+00 6.4283081410109549e-02 0.0000000000000000e+00  9.0442882398477675e-01 4.0437070701526481e-02 0.0000000000000000e+00  0.0000000000000000e+00 0.0000000000000000e+00 0.0000000000000000e+00  0.0000000000000000e+00 0.0000000000000000e+00 0.0000000000000000e+00  0.0000000000000000e+00 0.0000000000000000e+00 0.0000000000000000e+00  0.0000000000000000e+00 0.0000000000000000e+00 0.0000000000000000e+00  0.0000000000000000e+00 0.0000000000000000e+00 0.0000000000000000e+00  0.0000000000000000e+00 0.0000000000000000e+00 0.0000000000000000e+00  0.0000000000000000e+00 0.0000000000000000e+00 0.0000000000000000e+00  0.0000000000000000e+00 0.0000000000000000e+00 0.0000000000000000e+00  0.0000000000000000e+00 0.0000000000000000e+00 0.0000000000000000e+00  0.0000000000000000e+00 0.0000000000000000e+00 0.0000000000000000e+00  0.0000000000000000e+00 0.0000000000000000e+00 0.0000000000000000e+00  0.0000000000000000e+00 0.0000000000000000e+00 0.0000000000000000e+00  0.0000000000000000e+00 0.0000000000000000e+00 0.0000000000000000e+00  0.0000000000000000e+00 0.0000000000000000e+00 0.0000000000000000e+00  0.0000000000000000e+00 0.0000000000000000e+00 0.0000000000000000e+00  0.0000000000000000e+00 0.0000000000000000e+00 0.0000000000000000e+00  0.0000000000000000e+00 0.0000000000000000e+00 0.0000000000000000e+00  0.0000000000000000e+00 0.0000000000000000e+00 0.0000000000000000e+00  0.0000000000000000e+00 0.0000000000000000e+00 0.0000000000000000e+00  0.0000000000000000e+00 0.0000000000000000e+00 0.0000000000000000e+00  0.0000000000000000e+00 0.0000000000000000e+00 0.0000000000000000e+00  9.6000005701289148e-01 0.0000000000000000e+00 0.0000000000000000e+00  1.4400000855206594e+00 0.0000000000000000e+00 0.0000000000000000e+00  1.4400000855232378e+00 0.0000000000000000e+00 0.0000000000000000e+00  9.6000005701653091e-01 0.0000000000000000e+00 0.0000000000000000e+00  5.2853703691426723e-01 -8.4617960283373250e-01 0.0000000000000000e+00  9.6554699296336977e-02 -3.5608852339666971e-02 0.0000000000000000e+00  8.0285568645750682e-01 -1.2875291677641867e-01 0.0000000000000000e+00  1.7515716505991432e+00 -1.9407619120623582e-02 0.0000000000000000e+00  1.9728538172963657e+00 -3.7118945197680005e-02 0.0000000000000000e+00  1.4705459593055843e+00 1.8506714673421648e-01 0.0000000000000000e+00  1.3322071611962445e+00 3.5854454584635670e-01 0.0000000000000000e+00  1.3405040356348223e+00 2.7920044117175613e-01 0.0000000000000000e+00  1.3058376490328762e+00 -4.4540194655250831e-02 0.0000000000000000e+00  1.2552189023273423e+00 -2.9997860163458734e-01 0.0000000000000000e+00  1.3866462850616206e+00 -3.4875276945845279e-01 0.0000000000000000e+00  -3.0677693467495881e-01 3.0272251961032953e-01 0.0000000000000000e+00  1.5490950520722797e+00 -2.7372110216630618e-01 0.0000000000000000e+00  -1.4086556995924641e-02 8.5783768079818676e-02 0.0000000000000000e+00  5.5532811184592600e-02 3.5125040206022667e-01 0.0000000000000000e+00  1.1832834572798399e+00 5.8250039718839131e-01 0.0000000000000000e+00  3.8821891063284530e-01 1.0396981146126015e-01 0.0000000000000000e+00  1.8436407862524198e+00 -1.8899943631942803e-01 0.0000000000000000e+00  1.3167297480828046e+00 -1.2170020941581100e-01 0.0000000000000000e+00  1.5613798087195134e+00 5.0784184340504590e-01 0.0000000000000000e+00  1.5766405627568325e+00 9.1347543068461312e-01 0.0000000000000000e+00  1.8707683851455021e+00 1.7494529378293552e-01 0.0000000000000000e+00  1.5894930299675245e+00 -6.3367336646115124e-01 0.0000000000000000e+00  1.0092726456830161e+00 -8.7466009554973655e-03 0.0000000000000000e+00  2.0571011008485329e+00 4.1247269386323193e-01 0.0000000000000000e+00  1.9171684193855227e+00 6.4533949373008881e-01 0.0000000000000000e+00  1.5303725296401587e+00 8.0357001162996400e-01 0.0000000000000000e+00  1.1676922235113198e+00 6.0183074720412233e-01 0.0000000000000000e+00  9.4464376339557599e-01 1.5099035388384466e-01 0.0000000000000000e+00  9.7711732462897483e-01 -3.5411650174009890e-01 0.0000000000000000e+00  1.2751133393438758e+00 -6.6288312700161933e-01 0.0000000000000000e+00  1.6307869500615146e+00 -6.8741231660196656e-01 0.0000000000000000e+00  1.8892585690393613e+00 -4.9459858575081550e-01 0.0000000000000000e+00  1.6430914861194175e+00 3.2775863327788796e-01 0.0000000000000000e+00  1.3997025633845825e+00 -3.8338726405247125e-01 0.0000000000000000e+00  1.5712561927327495e+00 -3.2544844240031751e-01 0.0000000000000000e+00  -1.6213416564146799e-01 2.5265222290663480e-01 0.0000000000000000e+00  1.7696977619780365e+00 3.8225998231965919e-01 0.0000000000000000e+00  9.4010055636961876e-01 2.5493549914085728e-01 0.0000000000000000e+00  1.5402625448580765e+00 -3.0616874245741021e-01 0.0000000000000000e+00  1.3416630163545058e+00 -1.2874498745498186e-01 0.0000000000000000e+00  1.1992721862624862e+00 -9.8715515691820882e-02 0.0000000000000000e+00  -3.7490459225289458e-02 3.4973081974320930e-01 0.0000000000000000e+00  1.3064207781786950e+00 -3.0591798225081296e-01 0.0000000000000000e+00  1.1749343954429849e+00 -4.2294504968343893e-01 0.0000000000000000e+00  1.4311861569232445e+00 -5.5483151805596709e-02 0.0000000000000000e+00  8.8221273544956214e-01 2.5828413492094865e-01 0.0000000000000000e+00  1.3622846999324183e+00 2.7597002748636684e-01 0.0000000000000000e+00  1.1451517914871367e+00 1.9140875418493412e-02 0.0000000000000000e+00  -1.1268702352054177e-01 1.2982866879454158e-01 0.0000000000000000e+00  1.0165502898239902e+00 -2.4444799367486952e-01 0.0000000000000000e+00  1.4747402805295604e+00 -5.9287009199331317e-02 0.0000000000000000e+00  1.0827190919735989e+00 1.7800134488912739e-01 0.0000000000000000e+00  1.6258769071129702e+00 9.1094906100663664e-01 0.0000000000000000e+00  1.7950025074066531e+00 8.8033434432255808e-01 0.0000000000000000e+00  1.2697145602826416e+00 9.8795864614020601e-01 0.0000000000000000e+00  7.7597812109240361e-01 5.6556277461485105e-01 0.0000000000000000e+00  6.4300198477041792e-01 -1.4301074768884581e-01 0.0000000000000000e+00  2.0900056884446259e+00 5.9436430169645149e-01 0.0000000000000000e+00  1.9317676737612262e+00 -2.6223855199433693e-01 0.0000000000000000e+00  1.6147535516467981e+00 1.9836135473836197e-01 0.0000000000000000e+00  9.4892194589357570e-01 -7.5384047131424115e-01 0.0000000000000000e+00  6.8046085880180873e-01 -9.2687043592591556e-02 0.0000000000000000e+00  1.0489905592727593e+00 3.1064978400830784e-01 0.0000000000000000e+00  1.4480446185243590e+00 4.4613809263451869e-02 0.0000000000000000e+00  1.0059042260766606e+00 2.4150033460198252e-02 0.0000000000000000e+00  3.2546700849150417e-01 4.5725724325014948e-02 0.0000000000000000e+00  -4.9085009905546796e-02 2.4487774725501543e-01 0.0000000000000000e+00  -5.6762147795348820e-02 3.0795903269396602e-01 0.0000000000000000e+00  1.2311576894991147e+00 -1.2692109564867290e-01 0.0000000000000000e+00  1.7248708669840063e+00 4.8765057150504956e-02 0.0000000000000000e+00  1.9216484773348287e-02 -7.6315803955530927e-03 0.0000000000000000e+00  1.4907115580155079e+00 -1.0096057245488002e+00 0.0000000000000000e+00  1.7792179477326058e+00 -2.6558692599244643e-01 0.0000000000000000e+00  7.9474271704737409e-01 9.1692467270830719e-02 0.0000000000000000e+00  1.0157642218010030e+00 8.9242991082324488e-02 0.0000000000000000e+00  1.5313344364121280e+00 2.9623730798315062e-01 0.0000000000000000e+00  1.1333960400983087e+00 -1.5050590500318412e-01 0.0000000000000000e+00  1.2213602337203033e+00 3.7476171453912654e-01 0.0000000000000000e+00  1.3216872011869325e+00 -7.2238334432554063e-02 0.0000000000000000e+00  5.0251036947649108e-01 -1.2116051074910464e-02 0.0000000000000000e+00  1.7394910077833954e+00 -3.2098650764468950e-01 0.0000000000000000e+00  -6.0810113741506133e-02 2.1907235954369216e-02 0.0000000000000000e+00  1.5591683672821215e+00 1.1546122542056805e+00 0.0000000000000000e+00  -3.8979832963199380e-02 2.0906767262013093e-01 0.0000000000000000e+00  1.9543035871263439e+00 7.8792576019062821e-01 0.0000000000000000e+00  8.6932413561585709e-01 9.7671415099476599e-01 0.0000000000000000e+00  4.3625222128956997e-01 2.5756163484228262e-01 0.0000000000000000e+00  1.1306755549763388e+00 -1.6790852940316570e-01 0.0000000000000000e+00  1.5819041386696053e+00 -1.2506899106651809e-01 0.0000000000000000e+00  7.0584722543562384e-01 -3.0037866230407229e-01 0.0000000000000000e+00  1.4856872344477450e+00 2.4789939431270303e-01 0.0000000000000000e+00  -5.4837629775301010e-02 1.0850726691864766e-01 0.0000000000000000e+00  5.8309729753338357e-01 -5.7670961359570250e-01 0.0000000000000000e+00  7.2705627178022969e-01 -3.9479180481134157e-01 0.0000000000000000e+00  1.9282249290526579e+00 -7.7511711288509477e-01 0.0000000000000000e+00  9.7953268863852616e-01 -5.0003427455627740e-02 0.0000000000000000e+00  3.4367419808643768e-01 2.6257660992157435e-02 0.0000000000000000e+00  -4.4531523950955255e-02 -5.7287106741898108e-01 0.0000000000000000e+00  1.6880097339856199e+00 -7.5631442733779930e-01 0.0000000000000000e+00  1.1420051866051262e+00 -1.0478303527685100e+00 0.0000000000000000e+00  1.3174313815513652e+00 -1.2104245769262303e-01 0.0000000000000000e+00  8.8033488360797263e-01 -1.0292762579847120e-01 0.0000000000000000e+00  1.2011445991826351e+00 1.9766383165544743e-01 0.0000000000000000e+00  7.7472505836198180e-01 -4.4390104498863742e-02 0.0000000000000000e+00  4.3279482215133919e-02 -3.1629227282220271e-02 0.0000000000000000e+00  1.3697782928121558e+00 1.7902789602029533e-02 0.0000000000000000e+00  1.8072709965542733e+00 -4.9898437936389495e-01 0.0000000000000000e+00  9.4271513436065890e-01 2.9992877620443081e-01 0.0000000000000000e+00  1.7534213439147335e+00 -9.7547074151678581e-01 0.0000000000000000e+00  9.0930231281203056e-01 1.6068189543638228e-01 0.0000000000000000e+00  1.5263018596288911e+00 9.3813860038499078e-02 0.0000000000000000e+00  1.0559231454261975e+00 -1.5961151959921410e-01 0.0000000000000000e+00  1.4164907114595622e+00 1.0264126176705762e-01 0.0000000000000000e+00  1.0393742804390051e+00 1.5580063788196416e-01 0.0000000000000000e+00  -1.3013566699093462e-01 3.5528964015827069e-01 0.0000000000000000e+00  9.6558082573778214e-01 -6.5814987534695849e-02 0.0000000000000000e+00  1.3817840664645835e+00 4.5606771882173658e-01 0.0000000000000000e+00  1.2681479305596544e+00 -5.5856527948641592e-02 0.0000000000000000e+00  1.2771411892107860e+00 1.9592552547195144e-01 0.0000000000000000e+00  1.4766913959144430e+00 2.4250232306718347e-01 0.0000000000000000e+00  1.3058425648193188e+00 1.2312748929229407e-01 0.0000000000000000e+00  1.3907165569553919e+00 3.9441313248442317e-01 0.0000000000000000e+00  8.8400476863678579e-01 1.7782693779686420e-01 0.0000000000000000e+00  2.0662365101563811e+00 -3.2648013721616698e-01 0.0000000000000000e+00  -5.2046861078434280e-02 2.6545700632372032e-01 0.0000000000000000e+00  1.5304522534087805e+00 9.9326438770496212e-02 0.0000000000000000e+00  1.6064689348325236e+00 3.9922924800939363e-01 0.0000000000000000e+00  1.4662748292442629e+00 1.5392258705664613e-01 0.0000000000000000e+00  1.5321256135544672e+00 -2.4727965406045552e-01 0.0000000000000000e+00  7.9858725158779420e-01 4.7719228869367428e-02 0.0000000000000000e+00  1.4942097543077799e+00 2.7202034844268953e-02 0.0000000000000000e+00  1.6085601043313056e+00 -8.1860489120081995e-02 0.0000000000000000e+00  1.5483403071432904e+00 -1.1848867477877906e-01 0.0000000000000000e+00  1.0640202365785328e-01 2.7696314479352424e-01 0.0000000000000000e+00  1.2627334889700028e+00 -2.8774141246576868e-01 0.0000000000000000e+00  1.5920726646818719e+00 -9.7658014827866990e-01 0.0000000000000000e+00  1.5780153529816494e+00 -4.9810544990928862e-01 0.0000000000000000e+00  6.5386325156196345e-01 3.2513948429764861e-01 0.0000000000000000e+00  1.2913389208711961e+00 3.8114073709000731e-02 0.0000000000000000e+00  9.3426511389698341e-01 -1.2287045100476526e-01 0.0000000000000000e+00  1.3338911127665967e+00 -1.9204471269853846e-01 0.0000000000000000e+00  1.9227391689722335e+00 1.5290767819618400e-01 0.0000000000000000e+00  8.5168948524534172e-01 1.4407954276535465e-01 0.0000000000000000e+00  1.0474482183472835e+00 -2.1924133571870971e-01 0.0000000000000000e+00  9.2597874585673201e-01 -1.4166699702683030e-01 0.0000000000000000e+00  -3.8601471430176942e-01 1.6659805061790464e-01 0.0000000000000000e+00  1.2350217156020790e-02 3.4852430868612239e-01 0.0000000000000000e+00  7.9279484109535525e-01 8.8016100474409935e-03 0.0000000000000000e+00  8.5586623970634002e-01 -6.3810980892658450e-02 0.0000000000000000e+00  1.4171713577196290e+00 2.9797008453801876e-01 0.0000000000000000e+00  1.5155036815678511e+00 5.9119151330753274e-02 0.0000000000000000e+00  4.1633776041785947e-01 -7.3770322961025078e-02 0.0000000000000000e+00  6.8811427072013509e-01 -5.9356476007771775e-02 0.0000000000000000e+00  1.3918493868438724e+00 2.0096435604125981e-01 0.0000000000000000e+00  6.7627243605084320e-01 -4.4725637248387212e-02 0.0000000000000000e+00  -1.1109019926395643e-01 1.8283537217975435e-01 0.0000000000000000e+00  7.5593870779223482e-01 -1.7361582310115968e-02 0.0000000000000000e+00  4.7936686734701761e-01 -2.7721592746516713e-02 0.0000000000000000e+00  1.1305945292119934e+00 1.1818163351271060e+00 0.0000000000000000e+00  1.7206609719303467e+00 9.8839373186810353e-01 0.0000000000000000e+00  4.6792231537962237e-01 7.0776439263285695e-01 0.0000000000000000e+00  3.0094121037439842e-01 -1.9298995789722151e-01 0.0000000000000000e+00  1.0217627722028204e+00 -8.3280319788545137e-02 0.0000000000000000e+00  -3.5034017211752332e-02 5.6490376099662946e-02 0.0000000000000000e+00  1.4828313267631312e+00 3.7879266737434458e-01 0.0000000000000000e+00  -4.8307292031136269e-02 -3.9267122186735483e-02 0.0000000000000000e+00  -2.1517663518695607e-02 9.4990429912276714e-02 0.0000000000000000e+00  1.0869722088870026e+00 1.0211649635002850e-02 0.0000000000000000e+00  1.4060280537642456e+00 -1.2853706700796849e-01 0.0000000000000000e+00  7.2549448935591154e-01 -9.4356772430772085e-01 0.0000000000000000e+00  9.9032392331370334e-01 5.9346139543162868e-02 0.0000000000000000e+00  6.1243265370468358e-01 5.4277426390477446e-02 0.0000000000000000e+00  4.9541239304315909e-01 4.9419088823168707e-02 0.0000000000000000e+00  9.6545524914684655e-01 4.4291788521324343e-02 0.0000000000000000e+00  1.3655844327521471e+00 -4.4225006283130464e-01 0.0000000000000000e+00  1.2219355521900004e+00 7.3690863861262013e-01 0.0000000000000000e+00  5.1251074767489846e-01 2.5446068347324841e-02 0.0000000000000000e+00  6.8020400052972840e-01 8.3360584032432058e-02 0.0000000000000000e+00  -2.0908494020932858e-01 1.8093297880497020e-01 0.0000000000000000e+00  6.7944461168748649e-01 -6.1608705773130087e-03 0.0000000000000000e+00  1.4317656866011035e+00 1.6328260075016895e-01 0.0000000000000000e+00  6.3386997263536626e-01 -1.9218360085717523e-01 0.0000000000000000e+00  1.9665684269050416e+00 8.1267158021149713e-02 0.0000000000000000e+00  1.4589693791745764e+00 -2.5047647455570445e-03 0.0000000000000000e+00  1.6071131044095854e+00 5.9654509256603594e-01 0.0000000000000000e+00  8.6480620595774127e-01 -8.6254862745506061e-02 0.0000000000000000e+00  1.5249628366781272e+00 1.3652204459537995e-01 0.0000000000000000e+00  1.3362710466029937e+00 1.5632558642400627e-02 0.0000000000000000e+00  1.4582329347637439e+00 -1.9136206523148783e-01 0.0000000000000000e+00  1.6244716728844284e+00 4.1726059379544045e-01 0.0000000000000000e+00  1.4610878512687946e+00 2.5712831347617704e-01 0.0000000000000000e+00  1.1542017849229651e+00 -3.9645702739214123e-01 0.0000000000000000e+00  1.2898732678172153e+00 -7.0483855131538287e-01 0.0000000000000000e+00  1.4067536972416734e+00 -5.8950647190349315e-01 0.0000000000000000e+00  5.8835676793850245e-01 -2.5722859394688780e-01 0.0000000000000000e+00  1.5203861734567476e+00 -3.782123656815627