<?xml version="1.0"?>
<VTKFile type="UnstructuredGrid"  version="0.1"  >
<UnstructuredGrid>
<Piece  NumberOfPoints="3852" NumberOfCells="7360">
<Points>
<DataArray  type="Float64"  NumberOfComponents="3"  format="ascii">0 0 0  0 0.41 0  2.2 0.41 0  2.2 0 0  0.2 0.15 0  0.15 0.2 0  0.2 0.25 0  0.25 0.2 0  0.2097545161007899 0.1509607359798352 0  0.219134171618224 0.153806023374423 0  0.2277785116509268 0.1584265193848371 0  0.2353553390592504 0.1646446609405956 0  0.2415734806150793 0.1722214883489481 0  0.2461939766255306 0.1808658283816641 0  0.249039264020151 0.1902454838991403 0  0.2490392640201666 0.2097545161007811 0  0.2461939766255869 0.2191341716182 0  0.2415734806151802 0.2277785116509009 0  0.2353553390594108 0.235355339059244 0  0.2277785116510524 0.2415734806150789 0  0.2191341716182962 0.2461939766255471 0  0.209754516100834 0.2490392640201561 0  0.1902454838992189 0.2490392640201666 0  0.1808658283818 0.2461939766255869 0  0.1722214883490991 0.2415734806151802 0  0.164644660940756 0.2353553390594108 0  0.1584265193849211 0.2277785116510524 0  0.1538060233744529 0.2191341716182962 0  0.150960735979844 0.209754516100834 0  0.1509607359798352 0.1902454838992101 0  0.153806023374423 0.180865828381776 0  0.1584265193848371 0.1722214883490732 0  0.1646446609405956 0.1646446609407496 0  0.1722214883489481 0.1584265193849207 0  0.1808658283816641 0.1538060233744694 0  0.1902454838991403 0.150960735979849 0  0.09999999999980318 0 0  0.1999999999996354 0 0  0.2999999999994593 0 0  0.3999999999991452 0 0  0.4999999999988309 0 0  0.599999999998495 0 0  0.6999999999982023 0 0  0.7999999999979096 0 0  0.8999999999975735 0 0  0.9999999999972848 0 0  1.099999999997053 0 0  1.199999999997309 0 0  1.299999999997566 0 0  1.399999999997821 0 0  1.49999999999809 0 0  1.599999999998377 0 0  1.69999999999859 0 0  1.799999999998877 0 0  1.899999999999145 0 0  1.999999999999386 0 0  2.099999999999693 0 0  2.2 0.08199999999981657 0  2.2 0.1639999999995688 0  2.2 0.2459999999995603 0  2.2 0.327999999999785 0  2.100000000000048 0.41 0  2.000000000000269 0.41 0  1.900000000000422 0.41 0  1.800000000000679 0.41 0  1.700000000000931 0.41 0  1.600000000001326 0.41 0  1.500000000001665 0.41 0  1.400000000002032 0.41 0  1.300000000002395 0.41 0  1.200000000002644 0.41 0  1.100000000002865 0.41 0  1.000000000002617 0.41 0  0.900000000002368 0.41 0  0.8000000000021192 0.41 0  0.7000000000018587 0.41 0  0.6000000000015786 0.41 0  0.5000000000013736 0.41 0  0.4000000000010933 0.41 0  0.3000000000008329 0.41 0  0.2000000000005997 0.41 0  0.1000000000003003 0.41 0  0 0.3280000000001975 0  0 0.2460000000004372 0  0 0.1640000000004437 0  0 0.08200000000021695 0  0.439039350479032 0.2235433210862024 0  0.3557293424662716 0.1539377961885917 0  0.3450132387946972 0.2399891502764809 0  0.2900756359792848 0.08507884665974728 0  0.2884413411145515 0.3059878288466324 0  0.2102195502178943 0.3385267178242456 0  0.137328909169326 0.3152847369018352 0  0.08490385663776813 0.2628976192695439 0  0.08063302347471875 0.188368977740952 0  0.1005937615311739 0.1162460982751979 0  0.1621860847198582 0.08598327887900903 0  0.3012864586130264 0.1926027915888804 0  1.999140000000448 0.2049999999995642 0  0.2742354912953259 0.1572259708446958 0  0.2871471664627305 0.2264358039321654 0  0.6542851578645765 0.1981889790488746 0  0.2651366296338276 0.2534562504463119 0  0.2371819217149928 0.0977949043027586 0  1.651678197071202 0.2145186615851206 0  1.349674714201118 0.2086119645070391 0  0.9627539291831038 0.2056711800839285 0  0.2360880502985623 0.2733043913425156 0  1.159884231859056 0.2050429640239795 0  0.2502927927237266 0.1358797630898622 0  0.2080582834123368 0.2835355213895352 0  0.1805439632603489 0.278338480667804 0  0.1486243506827335 0.2626014098227327 0  0.1266658889266303 0.2392753516137401 0  0.1179814841582247 0.2069380844236527 0  0.1225167704961566 0.1764957192948648 0  0.1357996569043286 0.1472158045151807 0  0.1619764829264572 0.126298308975886 0  0.1935640279204225 0.116654032325456 0  1.82457000000085 0.2346439024393236 0  0.8027657238591595 0.149277802568535 0  1.498563450727992 0.2632867809910664 0  0.2770405925201826 0.1924926016722167 0  0.470924801584011 0.09138612536042019 0  0.550693598792917 0.2898604497866635 0  0.381089831438127 0.3238078833671811 0  2.074516462495042 0.125705772324225 0  2.083599037046577 0.2769549245607841 0  0.2692296340100125 0.2210592970306522 0  0.7614733075682367 0.2839235561638241 0  1.536698221979284 0.1258192462655419 0  1.231809489345021 0.1282542717942667 0  1.054759157670174 0.1242749934189342 0  1.754535566851005 0.1223197024158991 0  1.90452621597739 0.1324728094649104 0  0.2672409321155211 0.178737994598723 0  1.254401531996246 0.2902808614622134 0  1.04350934597445 0.2986664252663559 0  0.0749710792305778 0.3208721925318313 0  0.5425289614095572 0.165152457827861 0  0.1663208394680799 0.2644065126118989 0  0.1471335176887868 0.2433864007787126 0  0.1345556779484054 0.219852318055334 0  0.131940483167677 0.1932967226753857 0  0.1941574795820069 0.2685534232066453 0  0.2226696214021025 0.1252682734732412 0  0.2193882214552426 0.2661718674478616 0  0.1396865053227576 0.1677617654469802 0  0.8749487631478475 0.295170577255529 0  1.424301820545763 0.1157348858866879 0  1.918515045506933 0.2902236143624367 0  1.744876807925144 0.306628844405037 0  0.2443979144126529 0.254353837216211 0  0.2569054246570621 0.2306780201523878 0  0.2632507216716993 0.2062296523407826 0  0.4609453431326088 0.3138128990490959 0  0.3578015395476809 0.08253318517696946 0  0.2529777826635333 0.155582948480283 0  0.1580369715200277 0.1487041474358234 0  0.652872088668587 0.3101079993636056 0  0.297147332491062 0.2558065812325378 0  0.6188247313471635 0.1101603945467571 0  0.8951149554961688 0.1123812542864208 0  1.592749166085722 0.2985190085719691 0  1.40420309431358 0.2992155383468256 0  1.649189110727275 0.1000387439201274 0  0.2301663900864273 0.1432830242131801 0  0.2064839406544439 0.1345771465164309 0  0.2548204572493643 0.1702022465417566 0  0.1606700828011604 0.2481621709908606 0  0.2605987457303776 0.1928909671966518 0  0.1826942838524941 0.2594610608897559 0  0.1456438338561037 0.2290651013631561 0  0.1387681034994896 0.2058679665896095 0  1.140902260384949 0.3081952438204152 0  2.123402621966431 0.2039515281261525 0  0.7272188829630218 0.1047469619375249 0  0.2060868819369127 0.2616331638469837 0  0.246763614216289 0.2411610007697902 0  0.1405961691450822 0.1819800466423126 0  1.149638048863541 0.08264492713269313 0  0.1809997740285721 0.1365020267363126 0  1.993198408221569 0.09755938404998035 0  0.2287111352430851 0.2547015941619741 0  0.3818716699056283 0.2060398770290832 0  0.39147508084147 0.2656155699545688 0  0.151201080877373 0.1608659990301362 0  0.0542521118046473 0.1382221876243976 0  0.06190301158313444 0.0685934933767465 0  1.317316039400266 0.1015983144534349 0  0.2176417279723976 0.1415790407114221 0  0.2401571300978209 0.1529210337009423 0  0.2618092962776011 0.3566662607419938 0  0.1941527094396574 0.1377969918002053 0  0.9590486261329707 0.3255353063371385 0  0.1708201090411339 0.1447474051814825 0  1.837592370686806 0.3302992722413595 0  0.3197015570210796 0.1212159119695666 0  0.4155281956943757 0.1409543952531078 0  0.0549491513262805 0.2307535706287103 0  0.1668210562270142 0.3605647861782867 0  0.2854688902460447 0.2093700809023571 0  2.013251581901814 0.3292746985146142 0  0.1192191106244758 0.2809901915857802 0  0.2487958366614321 0.04556523514103697 0  0.09061021186838321 0.2240174335271237 0  1.737143840576958 0.20912817770623 0  0.04515017012776967 0.2784708690411318 0  0.5347554646753627 0.08988970780599832 0  0.977104673723579 0.08241628541188413 0  0.336509991617897 0.2888965225844298 0  0.2569238041969055 0.2173711314485607 0  1.906541186051535 0.2125389476829634 0  0.1762338839607841 0.3102437166134606 0  1.449268841077636 0.201011295143529 0  0.8555371485878378 0.2099663446585434 0  1.837208236203613 0.07556229833764837 0  1.264402545318887 0.1992523923163096 0  1.068181074047183 0.2155119107017876 0  0.3158931250274742 0.3421721218291775 0  0.2731958384900449 0.2373435058667565 0  0.09875906484220501 0.1533097574901186 0  0.7355755433976705 0.2066339904079041 0  1.567440499207928 0.2049999999995983 0  1.329829828222916 0.3295825481537897 0  0.8214190147401245 0.07894167681990104 0  1.525459989258997 0.3394220200696043 0  0.1990897327079506 0.06300531675246424 0  0.244701762210989 0.3062404318132603 0  0.1033853772622983 0.3551443431224104 0  0.1178236825374896 0.07148041782551597 0  0.1558198999929474 0.04409380269139784 0  0.3389178979413869 0.198678920661321 0  0.310790717645908 0.2196004930752872 0  2.125022007676643 0.3402049371791425 0  2.130028889485561 0.06535501282233655 0  0.4821161335597635 0.1626909543876269 0  0.2838678108956019 0.1254276466262967 0  0.5062815929260498 0.2376271077316994 0  1.663059277092996 0.3422301118688678 0  1.82292665764828 0.1574809263836269 0  2.052538557905295 0.05717536030732174 0  0.3078251537889645 0.16056368457456 0  0.8108267070172145 0.3390047366820738 0  1.487254632568403 0.0703866281621833 0  0.155004430757041 0.2369517702015699 0  0.1725545045705267 0.2519594403466565 0  0.1445581653510352 0.2167994984574706 0  0.1420710285613199 0.1942747855116325 0  1.461861739291679 0.3471998553985149 0  0.2372128969196007 0.2453440460936858 0  0.1943665918892754 0.2580518465884657 0  0.2452139232912363 0.1629124725160763 0  0.2555786751481889 0.1825885041235872 0  2.14640473333793 0.2790222779730848 0  2.145589594789407 0.1282024626544199 0  0.1486651579751984 0.1726583296292201 0  0.550000000001476 0.3603327897285098 0  0.0505668771231032 0.3660023622363767 0  1.049999999997169 0.05217028468202135 0  1.244771793631775 0.05744029386223062 0  0.1356759337238615 0.1094447816941579 0  0.5872326411628903 0.2223148728195226 0  0.2168458206248643 0.2558159203714847 0  1.749999999998732 0.05166028789524129 0  0.2855257256666041 0.1763246086558152 0  1.92
[...]
<PointData  Vectors="f_22"> 
<DataArray  type="Float64"  Name="f_22"  NumberOfComponents="3" format="ascii">0.0000000000000000e+00 0.0000000000000000e+00 0.0000000000000000e+00  0.0000000000000000e+00 0.0000000000000000e+00 0.0000000000000000e+00  0.0000000000000000e+00 0.0000000000000000e+00 0.0000000000000000e+00  0.0000000000000000e+00 0.0000000000000000e+00 0.0000000000000000e+00  0.0000000000000000e+00 0.0000000000000000e+00 0.0000000000000000e+00  0.0000000000000000e+00 0.0000000000000000e+00 0.0000000000000000e+00  0.0000000000000000e+00 0.0000000000000000e+00 0.0000000000000000e+00  0.0000000000000000e+00 0.0000000000000000e+00 0.0000000000000000e+00  0.0000000000000000e+00 0.0000000000000000e+00 0.0000000000000000e+00  0.0000000000000000e+00 0.0000000000000000e+00 0.0000000000000000e+00  0.0000000000000000e+00 0.0000000000000000e+00 0.0000000000000000e+00  0.0000000000000000e+00 0.0000000000000000e+00 0.0000000000000000e+00  0.0000000000000000e+00 0.0000000000000000e+00 0.0000000000000000e+00  0.0000000000000000e+00 0.0000000000000000e+00 0.0000000000000000e+00  0.0000000000000000e+00 0.0000000000000000e+00 0.0000000000000000e+00  0.0000000000000000e+00 0.0000000000000000e+00 0.0000000000000000e+00  0.0000000000000000e+00 0.0000000000000000e+00 0.0000000000000000e+00  0.0000000000000000e+00 0.0000000000000000e+00 0.0000000000000000e+00  0.0000000000000000e+00 0.0000000000000000e+00 0.0000000000000000e+00  0.0000000000000000e+00 0.0000000000000000e+00 0.0000000000000000e+00  0.0000000000000000e+00 0.0000000000000000e+00 0.0000000000000000e+00  0.0000000000000000e+00 0.0000000000000000e+00 0.0000000000000000e+00  0.0000000000000000e+00 0.0000000000000000e+00 0.0000000000000000e+00  0.0000000000000000e+00 0.0000000000000000e+00 0.0000000000000000e+00  0.0000000000000000e+00 0.0000000000000000e+00 0.0000000000000000e+00  0.0000000000000000e+00 0.0000000000000000e+00 0.0000000000000000e+00  0.0000000000000000e+00 0.0000000000000000e+00 0.0000000000000000e+00  0.0000000000000000e+00 0.0000000000000000e+00 0.0000000000000000e+00  0.0000000000000000e+00 0.0000000000000000e+00 0.0000000000000000e+00  0.0000000000000000e+00 0.0000000000000000e+00 0.0000000000000000e+00  0.0000000000000000e+00 0.0000000000000000e+00 0.0000000000000000e+00  0.0000000000000000e+00 0.0000000000000000e+00 0.0000000000000000e+00  0.0000000000000000e+00 0.0000000000000000e+00 0.0000000000000000e+00  0.0000000000000000e+00 0.0000000000000000e+00 0.0000000000000000e+00  0.0000000000000000e+00 0.0000000000000000e+00 0.0000000000000000e+00  0.0000000000000000e+00 0.0000000000000000e+00 0.0000000000000000e+00  0.0000000000000000e+00 0.0000000000000000e+00 0.0000000000000000e+00  0.0000000000000000e+00 0.0000000000000000e+00 0.0000000000000000e+00  0.0000000000000000e+00 0.0000000000000000e+00 0.0000000000000000e+00  0.0000000000000000e+00 0.0000000000000000e+00 0.0000000000000000e+00  0.0000000000000000e+00 0.0000000000000000e+00 0.0000000000000000e+00  0.0000000000000000e+00 0.0000000000000000e+00 0.0000000000000000e+00  0.0000000000000000e+00 0.0000000000000000e+00 0.0000000000000000e+00  0.0000000000000000e+00 0.0000000000000000e+00 0.0000000000000000e+00  0.0000000000000000e+00 0.0000000000000000e+00 0.0000000000000000e+00  0.0000000000000000e+00 0.0000000000000000e+00 0.0000000000000000e+00  0.0000000000000000e+00 0.0000000000000000e+00 0.0000000000000000e+00  0.0000000000000000e+00 0.0000000000000000e+00 0.0000000000000000e+00  0.0000000000000000e+00 0.0000000000000000e+00 0.0000000000000000e+00  0.0000000000000000e+00 0.0000000000000000e+00 0.0000000000000000e+00  0.0000000000000000e+00 0.0000000000000000e+00 0.0000000000000000e+00  0.0000000000000000e+00 0.0000000000000000e+00 0.0000000000000000e+00  0.0000000000000000e+00 0.0000000000000000e+00 0.0000000000000000e+00  0.0000000000000000e+00 0.0000000000000000e+00 0.0000000000000000e+00  0.0000000000000000e+00 0.0000000000000000e+00 0.0000000000000000e+00  0.0000000000000000e+00 0.0000000000000000e+00 0.0000000000000000e+00  0.0000000000000000e+00 0.0000000000000000e+00 0.0000000000000000e+00  1.1118068962346039e+00 -8.8248623047984691e-05 0.0000000000000000e+00  1.2357093885479331e+00 -7.6696192729724892e-05 0.0000000000000000e+00  1.2356792981104685e+00 6.2466485998306819e-05 0.0000000000000000e+00  1.1120343257321232e+00 6.2395675747584870e-05 0.0000000000000000e+00  0.0000000000000000e+00 0.0000000000000000e+00 0.0000000000000000e+00  0.0000000000000000e+00 0.0000000000000000e+00 0.0000000000000000e+00  0.0000000000000000e+00 0.0000000000000000e+00 0.0000000000000000e+00  0.0000000000000000e+00 0.0000000000000000e+00 0.0000000000000000e+00  0.0000000000000000e+00 0.0000000000000000e+00 0.0000000000000000e+00  0.0000000000000000e+00 0.0000000000000000e+00 0.0000000000000000e+00  0.0000000000000000e+00 0.0000000000000000e+00 0.0000000000000000e+00  0.0000000000000000e+00 0.0000000000000000e+00 0.0000000000000000e+00  0.0000000000000000e+00 0.0000000000000000e+00 0.0000000000000000e+00  0.0000000000000000e+00 0.0000000000000000e+00 0.0000000000000000e+00  0.0000000000000000e+00 0.0000000000000000e+00 0.0000000000000000e+00  0.0000000000000000e+00 0.0000000000000000e+00 0.0000000000000000e+00  0.0000000000000000e+00 0.0000000000000000e+00 0.0000000000000000e+00  0.0000000000000000e+00 0.0000000000000000e+00 0.0000000000000000e+00  0.0000000000000000e+00 0.0000000000000000e+00 0.0000000000000000e+00  0.0000000000000000e+00 0.0000000000000000e+00 0.0000000000000000e+00  0.0000000000000000e+00 0.0000000000000000e+00 0.0000000000000000e+00  0.0000000000000000e+00 0.0000000000000000e+00 0.0000000000000000e+00  0.0000000000000000e+00 0.0000000000000000e+00 0.0000000000000000e+00  0.0000000000000000e+00 0.0000000000000000e+00 0.0000000000000000e+00  0.0000000000000000e+00 0.0000000000000000e+00 0.0000000000000000e+00  9.6000005006545230e-01 0.0000000000000000e+00 0.0000000000000000e+00  1.4400000750995008e+00 0.0000000000000000e+00 0.0000000000000000e+00  1.4400000751020792e+00 0.0000000000000000e+00 0.0000000000000000e+00  9.6000005006909195e-01 0.0000000000000000e+00 0.0000000000000000e+00  -2.7435503224322255e-01 -3.5578652872796607e-01 0.0000000000000000e+00  2.2048472758322407e-01 -8.3600491048191339e-02 0.0000000000000000e+00  1.3501274871576335e-01 3.9106725298653829e-03 0.0000000000000000e+00  1.8486512696774278e+00 -9.8213455180745882e-02 0.0000000000000000e+00  1.9711887974011404e+00 9.3879031305258334e-02 0.0000000000000000e+00  1.4715194827012490e+00 2.1908491114514314e-01 0.0000000000000000e+00  1.3212455004119079e+00 3.5885717513160559e-01 0.0000000000000000e+00  1.3340831330810179e+00 2.6795312737734245e-01 0.0000000000000000e+00  1.3051908610732419e+00 -6.2897098808552931e-02 0.0000000000000000e+00  1.2599953418669469e+00 -3.1942251442683828e-01 0.0000000000000000e+00  1.4024990024203947e+00 -3.7732615489503091e-01 0.0000000000000000e+00  -2.3199456276662295e-01 1.7735269408976261e-02 0.0000000000000000e+00  1.2374549774366446e+00 -3.6192417098118295e-04 0.0000000000000000e+00  1.1088358249818990e-02 -4.9000714437802614e-02 0.0000000000000000e+00  -8.3994566179314278e-02 1.3454283123441135e-01 0.0000000000000000e+00  4.2733117570584517e-01 3.5282257637527509e-01 0.0000000000000000e+00  2.6946723926117266e-01 8.5091962993124090e-02 0.0000000000000000e+00  1.8746450065974993e+00 -2.5628113078317954e-01 0.0000000000000000e+00  1.2409537661121812e+00 -2.3551352635683063e-02 0.0000000000000000e+00  1.2426363170262822e+00 -6.2254744738120392e-02 0.0000000000000000e+00  1.3940245268614633e+00 1.2273354988777309e-01 0.0000000000000000e+00  1.7288764704170247e+00 2.1729392557334570e-01 0.0000000000000000e+00  1.2890236294873190e+00 6.6040275431400564e-02 0.0000000000000000e+00  8.5776807379370246e-01 -6.1624816579144884e-02 0.0000000000000000e+00  2.0069756009556956e+00 4.4852653375978363e-01 0.0000000000000000e+00  1.8733585952875753e+00 6.5262522694846459e-01 0.0000000000000000e+00  1.5005976505456002e+00 7.8604226154312606e-01 0.0000000000000000e+00  1.1513157111390124e+00 5.7446966517232245e-01 0.0000000000000000e+00  9.3968688863735095e-01 1.1943150970934732e-01 0.0000000000000000e+00  9.8045491047648725e-01 -3.8530857055645856e-01 0.0000000000000000e+00  1.2823086168282811e+00 -6.9112871111304786e-01 0.0000000000000000e+00  1.6370033930581931e+00 -7.1658408916605532e-01 0.0000000000000000e+00  1.8925639233412104e+00 -5.3537094353343528e-01 0.0000000000000000e+00  1.2377687334072227e+00 -5.4446220591637976e-03 0.0000000000000000e+00  1.1518633759458543e+00 -1.1595630940690456e-01 0.0000000000000000e+00  1.2482573648043969e+00 1.9240810822901171e-02 0.0000000000000000e+00  -1.3244720049192721e-01 2.1549978389746587e-02 0.0000000000000000e+00  1.9300002218012269e+00 3.0398970574426476e-01 0.0000000000000000e+00  1.6580834776263884e+00 -3.6766927132872843e-02 0.0000000000000000e+00  1.7954968735888892e+00 -1.2738810863408837e-01 0.0000000000000000e+00  1.2212121886040508e+00 -2.0092162831196474e-05 0.0000000000000000e+00  1.2267834664065733e+00 1.6188668296571219e-06 0.0000000000000000e+00  -8.2366062458704106e-02 1.5144099638344680e-01 0.0000000000000000e+00  1.5878475150961744e+00 -2.5617502618217708e-01 0.0000000000000000e+00  1.2299142423375995e+00 -1.0985766104851608e-02 0.0000000000000000e+00  1.2644442671695915e+00 -3.2852377387305995e-02 0.0000000000000000e+00  1.3734498639979285e+00 -9.9053540383498465e-02 0.0000000000000000e+00  1.2132963754213650e+00 4.1306793780484797e-04 0.0000000000000000e+00  1.2253442199276843e+00 -8.8290945024102217e-04 0.0000000000000000e+00  -8.2117709882472384e-02 -4.3488569794682165e-02 0.0000000000000000e+00  1.3375887758864256e+00 7.8914523505341685e-02 0.0000000000000000e+00  1.4214799458631049e+00 -4.0521050737034769e-02 0.0000000000000000e+00  1.0803304707022963e+00 1.7560862699510882e-01 0.0000000000000000e+00  1.1301300938874475e+00 5.5658969136627556e-01 0.0000000000000000e+00  1.7526884503626754e+00 8.6871337418380279e-01 0.0000000000000000e+00  1.2416620604701880e+00 9.5768057743520907e-01 0.0000000000000000e+00  7.6332363261267877e-01 5.2843050135071190e-01 0.0000000000000000e+00  6.4347398111328091e-01 -1.8010968107193942e-01 0.0000000000000000e+00  2.0209985493168654e+00 6.0425165179599916e-01 0.0000000000000000e+00  1.8879166603860988e+00 -3.1308516105061146e-01 0.0000000000000000e+00  1.4832559758241513e+00 2.1571483648246501e-01 0.0000000000000000e+00  9.5734714423222544e-01 -7.8543929983210314e-01 0.0000000000000000e+00  1.3035877367957789e+00 9.0461071934341372e-02 0.0000000000000000e+00  1.2974145304629643e+00 -1.7230237908822166e-02 0.0000000000000000e+00  1.2157695168670395e+00 -5.5989426881383818e-04 0.0000000000000000e+00  1.1967451489638541e+00 -4.9092287460201821e-03 0.0000000000000000e+00  2.5252917480132808e-01 5.5261438874034438e-02 0.0000000000000000e+00  -6.5264941503272889e-02 1.5144397906249790e-01 0.0000000000000000e+00  -6.1354941723196998e-02 9.9754573661273507e-02 0.0000000000000000e+00  1.6987546892953942e+00 -1.4857958181906875e-01 0.0000000000000000e+00  1.8848776027979985e+00 7.8774724556057597e-03 0.0000000000000000e+00  -1.1559219712244712e-02 -6.0122487090954489e-02 0.0000000000000000e+00  1.4980757004083154e+00 -1.0341134781522621e+00 0.0000000000000000e+00  1.7141754152777082e+00 -2.9959922267286532e-01 0.0000000000000000e+00  4.6310534758298261e-01 7.1685202175878718e-02 0.0000000000000000e+00  1.4329299855948945e+00 2.1796775758719270e-01 0.0000000000000000e+00  1.5299491112377017e+00 1.9107209065542993e-01 0.0000000000000000e+00  1.2366059579426727e+00 1.6087582171357845e-03 0.0000000000000000e+00  1.2485737298805084e+00 3.9661917854624570e-02 0.0000000000000000e+00  1.1708266963668787e+00 1.8846048915597659e-03 0.0000000000000000e+00  4.0849028986827696e-01 -3.5363911459160853e-02 0.0000000000000000e+00  1.6746771660275037e+00 -3.4443540241230530e-01 0.0000000000000000e+00  -5.8515988083993178e-02 -6.7052005891669181e-02 0.0000000000000000e+00  1.5191259398324124e+00 1.1264331141673467e+00 0.0000000000000000e+00  -4.2468282394494870e-02 2.2414532309756055e-02 0.0000000000000000e+00  1.8881230687472423e+00 7.7650464295493327e-01 0.0000000000000000e+00  8.4767285877211129e-01 9.3820301803476525e-01 0.0000000000000000e+00  4.3085214048281689e-01 2.1636721809303083e-01 0.0000000000000000e+00  1.2689205941332158e+00 -1.9156704832827519e-02 0.0000000000000000e+00  1.2375095213903706e+00 -2.4483478098089143e-05 0.0000000000000000e+00  1.3833290446368127e+00 -6.5900072285129840e-02 0.0000000000000000e+00  1.3810491702896168e+00 2.5069037705099750e-01 0.0000000000000000e+00  -5.6018842945373508e-02 9.8662183884087776e-02 0.0000000000000000e+00  5.8992836593653497e-01 -6.1314914146934840e-01 0.0000000000000000e+00  1.0533487125424119e+00 -6.8085624096369743e-02 0.0000000000000000e+00  1.9197601049301303e+00 -7.9877158729357844e-01 0.0000000000000000e+00  1.1723085867680378e+00 -9.0382696639119075e-05 0.0000000000000000e+00  2.8188695920231149e-01 3.1457861296739151e-02 0.0000000000000000e+00  -4.3263850299435636e-01 -1.8384713191666946e-01 0.0000000000000000e+00  1.1779748262734697e+00 -2.4088618859964861e-01 0.0000000000000000e+00  1.1523990342734691e+00 -1.0749105849311733e+00 0.0000000000000000e+00  1.3184080192950005e+00 -1.3036208621213258e-01 0.0000000000000000e+00  8.8264396099260323e-01 -1.0970869164490121e-01 0.0000000000000000e+00  1.2525168376971019e+00 -3.5921779392107521e-02 0.0000000000000000e+00  6.8173614380945413e-01 -6.0808773470541803e-02 0.0000000000000000e+00  3.6452857751827011e-04 -4.9490082676624643e-02 0.0000000000000000e+00  1.4162592347479037e+00 7.4827291772002688e-02 0.0000000000000000e+00  1.7627998031777761e+00 -5.1376377252100769e-01 0.0000000000000000e+00  1.0952312330432628e+00 2.0665406539057265e-02 0.0000000000000000e+00  1.7513503938725716e+00 -9.9350840152098729e-01 0.0000000000000000e+00  1.1020639224627875e+00 -1.0433812911868523e-03 0.0000000000000000e+00  1.4773906901347222e+00 -1.9483618243967372e-02 0.0000000000000000e+00  8.8416607231339051e-01 -6.1437029878611195e-02 0.0000000000000000e+00  1.4145561834836076e+00 9.4134787871514372e-02 0.0000000000000000e+00  1.0402361476751851e+00 1.6548230049522197e-01 0.0000000000000000e+00  -1.6018376147986327e-01 9.4286519797875265e-02 0.0000000000000000e+00  1.1062556624324587e+00 5.2355403789683753e-05 0.0000000000000000e+00  1.3677695027544055e+00 4.4549087581195301e-01 0.0000000000000000e+00  1.3434923156146623e+00 -8.8835472466220020e-02 0.0000000000000000e+00  1.2718554155655706e+00 1.7644660153913530e-01 0.0000000000000000e+00  1.2321200177631497e+00 -1.2631544692050731e-02 0.0000000000000000e+00  1.3043567885274725e+00 1.2021272517339544e-01 0.0000000000000000e+00  1.6649744334104846e+00 3.9215094632925124e-01 0.0000000000000000e+00  9.0081625102098306e-01 1.4205419875520590e-02 0.0000000000000000e+00  1.9364082466662258e+00 -6.3547316685337696e-02 0.0000000000000000e+00  -5.1076576195709190e-02 1.3261098125643248e-01 0.0000000000000000e+00  1.2376614778217068e+00 -1.5730306367659683e-03 0.0000000000000000e+00  1.5866365568132215e+00 4.1389587263908351e-01 0.0000000000000000e+00  1.1973566212695199e+00 1.8433336885411204e-02 0.0000000000000000e+00  1.2595681754573884e+00 -1.3591211405639614e-01 0.0000000000000000e+00  1.0751987895812216e+00 -6.0960961741819643e-04 0.0000000000000000e+00  1.3430953193298969e+00 -6.2991954720719071e-02 0.0000000000000000e+00  1.3440606947637914e+00 9.2809014933582692e-02 0.0000000000000000e+00  1.6522755750876743e+00 -7.9295907965792943e-04 0.0000000000000000e+00  -5.8536964203930947e-03 1.4494833000445156e-01 0.0000000000000000e+00  1.2657971372183978e+00 -3.1008797029836954e-01 0.0000000000000000e+00  1.2220662956243251e+00 -3.3446371420931925e-01 0.0000000000000000e+00  1.1944011201204920e+00 3.4894136586198894e-02 0.0000000000000000e+00  1.0303640091327269e+00 8.6654420049527989e-02 0.0000000000000000e+00  1.1273772340760320e+00 7.9012331322799528e-02 0.0000000000000000e+00  1.0236876911906723e+00 6.3309313654738115e-03 0.0000000000000000e+00  1.3695881333311377e+00 -2.2381241338304964e-01 0.0000000000000000e+00  1.9051373812818480e+00 2.2765650507064700e-01 0.0000000000000000e+00  8.5038542894367741e-01 1.4360616689317299e-01 0.0000000000000000e+00  1.0571610759276324e+00 -2.3625728345005331e-01 0.0000000000000000e+00  9.5020065305061230e-01 -1.5706053675377396e-01 0.0000000000000000e+00  -3.5581658461996013e-01 -2.8712341541827186e-02 0.0000000000000000e+00  -1.7539421693176607e-01 8.9397238920626856e-02 0.0000000000000000e+00  1.0382999692988633e+00 6.0758404970310402e-05 0.0000000000000000e+00  1.0042242832760642e+00 -3.9496224513718044e-05 0.0000000000000000e+00  7.6284070127834525e-01 9.7961371368568764e-02 0.0000000000000000e+00  1.3829879962353524e+00 -5.4923236079837789e-02 0.0000000000000000e+00  -1.6259124726654244e-02 -1.2440355922862988e-01 0.0000000000000000e+00  1.0271730369974921e+00 2.9024912306154357e-03 0.0000000000000000e+00  1.2320809374694996e+00 -2.4897103172140619e-03 0.0000000000000000e+00  9.3094016109800726e-01 -2.2380693020229229e-06 0.0000000000000000e+00  4.7756880387501508e-03 -3.3989392315029329e-02 0.0000000000000000e+00  8.1781150266379432e-01 6.6545184570952470e-03 0.0000000000000000e+00  1.0042399004132836e+00 -2.7909451444431702e-02 0.0000000000000000e+00  1.0999027397620760e+00 1.1462197204441531e+00 0.0000000000000000e+00  1.6678784796373824e+00 9.6487878552388873e-01 0.0000000000000000e+00  4.5476816883855303e-01 6.6636685844534482e-01 0.0000000000000000e+00  3.0304971584013229e-01 -2.3279607755073242e-01 0.0000000000000000e+00  9.5686972419221394e-01 8.0575409669238571e-03 0.0000000000000000e+00  -3.7168163895316159e-02 5.7890194968230391e-02 0.0000000000000000e+00  1.4016111573393621e+00 3.7062074416350743e-01 0.0000000000000000e+00  -5.8512755485191671e-02 -6.3000641051727382e-02 0.0000000000000000e+00  -3.1445862669036054e-02 -2.8627206250528725e-02 0.0000000000000000e+00  1.2254547841863201e+00 5.5478925222074912e-05 0.0000000000000000e+00  1.2233513521297248e+00 -4.1249922081192655e-05 0.0000000000000000e+00  7.3619272081609788e-01 -9.7341092580385913e-01 0.0000000000000000e+00  1.1913624150424087e+00 -7.2881090210646940e-02 0.0000000000000000e+00  6.1261914435033082e-01 5.4194460156557073e-02 0.0000000000000000e+00  5.2575174060693930e-01 -4.7133264747912670e-02 0.0000000000000000e+00  7.7452300443789024e-01 -2.8080003529210307e-02 0.0000000000000000e+00  1.3741278116698779e+00 -4.6799559399632773e-01 0.0000000000000000e+00  7.8771397967960011e-02 4.4010882616629093e-01 0.0000000000000000e+00  4.4715508655257502e-01 2.9459465515673890e-02 0.0000000000000000e+00  8.7184158375613219e-01 5.9628098570350577e-05 0.0000000000000000e+00  -1.2583136133325909e-01 -3.2569870860658531e-02 0.0000000000000000e+00  1.0012621685703860e+00 -1.2101246257354323e-04 0.0000000000000000e+00  1.6240787999689963e+00 1.3440194095507851e-01 0.0000000000000000e+00  9.3113405516770797e-01 -1.4349305474746013e-03 0.0000000000000000e+00  1.8038263830451284e+00 1.5281955148439180e-01 0.0000000000000000e+00  1.4586693536432003e+00 -8.4852549394444348e-03 0.0000000000000000e+00  1.5805519351163426e+00 5.9315953794787357e-01 0.0000000000000000e+00  8.7893477691659327e-01 -1.3694381596416494e-01 0.0000000000000000e+00  1.2107705540298155e+00 -9.1175968388319383e-03 0.0000000000000000e+00  1.2358250827949908e+00 -1.9289654474933072e-02 0.0000000000000000e+00  1.1977514758466883e+00 -7.4630659493121155e-03 0.0000000000000000e+00  1.2243517288067753e+00 -5.9134992286907807e-03 0.0000000000000000e+00  1.1966795809173632e+00 1.3678683353514857e-03 0.0000000000000000e+00  1.2540163988234694e+00 -4.5953169658519540e-02 0.0000000000000000e+00  1.3269761858438269e+00 -4.8452441511226414e-02 0.0000000000000000e+00  1.1878290383774519e+00 1.4849026439245254e-02 0.0000000000000000e+00  1.1986313446113945e+00 -1.2140317595732282e-01 0.0000000000000000e+00  1.4365063319163971e+00 -