<?xml version="1.0"?>
<VTKFile type="UnstructuredGrid"  version="0.1"  >
<UnstructuredGrid>
<Piece  NumberOfPoints="3852" NumberOfCells="7360">
<Points>
<DataArray  type="Float64"  NumberOfComponents="3"  format="ascii">0 0 0  0 0.41 0  2.2 0.41 0  2.2 0 0  0.2 0.15 0  0.15 0.2 0  0.2 0.25 0  0.25 0.2 0  0.2097545161007899 0.1509607359798352 0  0.219134171618224 0.153806023374423 0  0.2277785116509268 0.1584265193848371 0  0.2353553390592504 0.1646446609405956 0  0.2415734806150793 0.1722214883489481 0  0.2461939766255306 0.1808658283816641 0  0.249039264020151 0.1902454838991403 0  0.2490392640201666 0.2097545161007811 0  0.2461939766255869 0.2191341716182 0  0.2415734806151802 0.2277785116509009 0  0.2353553390594108 0.235355339059244 0  0.2277785116510524 0.2415734806150789 0  0.2191341716182962 0.2461939766255471 0  0.209754516100834 0.2490392640201561 0  0.1902454838992189 0.2490392640201666 0  0.1808658283818 0.2461939766255869 0  0.1722214883490991 0.2415734806151802 0  0.164644660940756 0.2353553390594108 0  0.1584265193849211 0.2277785116510524 0  0.1538060233744529 0.2191341716182962 0  0.150960735979844 0.209754516100834 0  0.1509607359798352 0.1902454838992101 0  0.153806023374423 0.180865828381776 0  0.1584265193848371 0.1722214883490732 0  0.1646446609405956 0.1646446609407496 0  0.1722214883489481 0.1584265193849207 0  0.1808658283816641 0.1538060233744694 0  0.1902454838991403 0.150960735979849 0  0.09999999999980318 0 0  0.1999999999996354 0 0  0.2999999999994593 0 0  0.3999999999991452 0 0  0.4999999999988309 0 0  0.599999999998495 0 0  0.6999999999982023 0 0  0.7999999999979096 0 0  0.8999999999975735 0 0  0.9999999999972848 0 0  1.099999999997053 0 0  1.199999999997309 0 0  1.299999999997566 0 0  1.399999999997821 0 0  1.49999999999809 0 0  1.599999999998377 0 0  1.69999999999859 0 0  1.799999999998877 0 0  1.899999999999145 0 0  1.999999999999386 0 0  2.099999999999693 0 0  2.2 0.08199999999981657 0  2.2 0.1639999999995688 0  2.2 0.2459999999995603 0  2.2 0.327999999999785 0  2.100000000000048 0.41 0  2.000000000000269 0.41 0  1.900000000000422 0.41 0  1.800000000000679 0.41 0  1.700000000000931 0.41 0  1.600000000001326 0.41 0  1.500000000001665 0.41 0  1.400000000002032 0.41 0  1.300000000002395 0.41 0  1.200000000002644 0.41 0  1.100000000002865 0.41 0  1.000000000002617 0.41 0  0.900000000002368 0.41 0  0.8000000000021192 0.41 0  0.7000000000018587 0.41 0  0.6000000000015786 0.41 0  0.5000000000013736 0.41 0  0.4000000000010933 0.41 0  0.3000000000008329 0.41 0  0.2000000000005997 0.41 0  0.1000000000003003 0.41 0  0 0.3280000000001975 0  0 0.2460000000004372 0  0 0.1640000000004437 0  0 0.08200000000021695 0  0.439039350479032 0.2235433210862024 0  0.3557293424662716 0.1539377961885917 0  0.3450132387946972 0.2399891502764809 0  0.2900756359792848 0.08507884665974728 0  0.2884413411145515 0.3059878288466324 0  0.2102195502178943 0.3385267178242456 0  0.137328909169326 0.3152847369018352 0  0.08490385663776813 0.2628976192695439 0  0.08063302347471875 0.188368977740952 0  0.1005937615311739 0.1162460982751979 0  0.1621860847198582 0.08598327887900903 0  0.3012864586130264 0.1926027915888804 0  1.999140000000448 0.2049999999995642 0  0.2742354912953259 0.1572259708446958 0  0.2871471664627305 0.2264358039321654 0  0.6542851578645765 0.1981889790488746 0  0.2651366296338276 0.2534562504463119 0  0.2371819217149928 0.0977949043027586 0  1.651678197071202 0.2145186615851206 0  1.349674714201118 0.2086119645070391 0  0.9627539291831038 0.2056711800839285 0  0.2360880502985623 0.2733043913425156 0  1.159884231859056 0.2050429640239795 0  0.2502927927237266 0.1358797630898622 0  0.2080582834123368 0.2835355213895352 0  0.1805439632603489 0.278338480667804 0  0.1486243506827335 0.2626014098227327 0  0.1266658889266303 0.2392753516137401 0  0.1179814841582247 0.2069380844236527 0  0.1225167704961566 0.1764957192948648 0  0.1357996569043286 0.1472158045151807 0  0.1619764829264572 0.126298308975886 0  0.1935640279204225 0.116654032325456 0  1.82457000000085 0.2346439024393236 0  0.8027657238591595 0.149277802568535 0  1.498563450727992 0.2632867809910664 0  0.2770405925201826 0.1924926016722167 0  0.470924801584011 0.09138612536042019 0  0.550693598792917 0.2898604497866635 0  0.381089831438127 0.3238078833671811 0  2.074516462495042 0.125705772324225 0  2.083599037046577 0.2769549245607841 0  0.2692296340100125 0.2210592970306522 0  0.7614733075682367 0.2839235561638241 0  1.536698221979284 0.1258192462655419 0  1.231809489345021 0.1282542717942667 0  1.054759157670174 0.1242749934189342 0  1.754535566851005 0.1223197024158991 0  1.90452621597739 0.1324728094649104 0  0.2672409321155211 0.178737994598723 0  1.254401531996246 0.2902808614622134 0  1.04350934597445 0.2986664252663559 0  0.0749710792305778 0.3208721925318313 0  0.5425289614095572 0.165152457827861 0  0.1663208394680799 0.2644065126118989 0  0.1471335176887868 0.2433864007787126 0  0.1345556779484054 0.219852318055334 0  0.131940483167677 0.1932967226753857 0  0.1941574795820069 0.2685534232066453 0  0.2226696214021025 0.1252682734732412 0  0.2193882214552426 0.2661718674478616 0  0.1396865053227576 0.1677617654469802 0  0.8749487631478475 0.295170577255529 0  1.424301820545763 0.1157348858866879 0  1.918515045506933 0.2902236143624367 0  1.744876807925144 0.306628844405037 0  0.2443979144126529 0.254353837216211 0  0.2569054246570621 0.2306780201523878 0  0.2632507216716993 0.2062296523407826 0  0.4609453431326088 0.3138128990490959 0  0.3578015395476809 0.08253318517696946 0  0.2529777826635333 0.155582948480283 0  0.1580369715200277 0.1487041474358234 0  0.652872088668587 0.3101079993636056 0  0.297147332491062 0.2558065812325378 0  0.6188247313471635 0.1101603945467571 0  0.8951149554961688 0.1123812542864208 0  1.592749166085722 0.2985190085719691 0  1.40420309431358 0.2992155383468256 0  1.649189110727275 0.1000387439201274 0  0.2301663900864273 0.1432830242131801 0  0.2064839406544439 0.1345771465164309 0  0.2548204572493643 0.1702022465417566 0  0.1606700828011604 0.2481621709908606 0  0.2605987457303776 0.1928909671966518 0  0.1826942838524941 0.2594610608897559 0  0.1456438338561037 0.2290651013631561 0  0.1387681034994896 0.2058679665896095 0  1.140902260384949 0.3081952438204152 0  2.123402621966431 0.2039515281261525 0  0.7272188829630218 0.1047469619375249 0  0.2060868819369127 0.2616331638469837 0  0.246763614216289 0.2411610007697902 0  0.1405961691450822 0.1819800466423126 0  1.149638048863541 0.08264492713269313 0  0.1809997740285721 0.1365020267363126 0  1.993198408221569 0.09755938404998035 0  0.2287111352430851 0.2547015941619741 0  0.3818716699056283 0.2060398770290832 0  0.39147508084147 0.2656155699545688 0  0.151201080877373 0.1608659990301362 0  0.0542521118046473 0.1382221876243976 0  0.06190301158313444 0.0685934933767465 0  1.317316039400266 0.1015983144534349 0  0.2176417279723976 0.1415790407114221 0  0.2401571300978209 0.1529210337009423 0  0.2618092962776011 0.3566662607419938 0  0.1941527094396574 0.1377969918002053 0  0.9590486261329707 0.3255353063371385 0  0.1708201090411339 0.1447474051814825 0  1.837592370686806 0.3302992722413595 0  0.3197015570210796 0.1212159119695666 0  0.4155281956943757 0.1409543952531078 0  0.0549491513262805 0.2307535706287103 0  0.1668210562270142 0.3605647861782867 0  0.2854688902460447 0.2093700809023571 0  2.013251581901814 0.3292746985146142 0  0.1192191106244758 0.2809901915857802 0  0.2487958366614321 0.04556523514103697 0  0.09061021186838321 0.2240174335271237 0  1.737143840576958 0.20912817770623 0  0.04515017012776967 0.2784708690411318 0  0.5347554646753627 0.08988970780599832 0  0.977104673723579 0.08241628541188413 0  0.336509991617897 0.2888965225844298 0  0.2569238041969055 0.2173711314485607 0  1.906541186051535 0.2125389476829634 0  0.1762338839607841 0.3102437166134606 0  1.449268841077636 0.201011295143529 0  0.8555371485878378 0.2099663446585434 0  1.837208236203613 0.07556229833764837 0  1.264402545318887 0.1992523923163096 0  1.068181074047183 0.2155119107017876 0  0.3158931250274742 0.3421721218291775 0  0.2731958384900449 0.2373435058667565 0  0.09875906484220501 0.1533097574901186 0  0.7355755433976705 0.2066339904079041 0  1.567440499207928 0.2049999999995983 0  1.329829828222916 0.3295825481537897 0  0.8214190147401245 0.07894167681990104 0  1.525459989258997 0.3394220200696043 0  0.1990897327079506 0.06300531675246424 0  0.244701762210989 0.3062404318132603 0  0.1033853772622983 0.3551443431224104 0  0.1178236825374896 0.07148041782551597 0  0.1558198999929474 0.04409380269139784 0  0.3389178979413869 0.198678920661321 0  0.310790717645908 0.2196004930752872 0  2.125022007676643 0.3402049371791425 0  2.130028889485561 0.06535501282233655 0  0.4821161335597635 0.1626909543876269 0  0.2838678108956019 0.1254276466262967 0  0.5062815929260498 0.2376271077316994 0  1.663059277092996 0.3422301118688678 0  1.82292665764828 0.1574809263836269 0  2.052538557905295 0.05717536030732174 0  0.3078251537889645 0.16056368457456 0  0.8108267070172145 0.3390047366820738 0  1.487254632568403 0.0703866281621833 0  0.155004430757041 0.2369517702015699 0  0.1725545045705267 0.2519594403466565 0  0.1445581653510352 0.2167994984574706 0  0.1420710285613199 0.1942747855116325 0  1.461861739291679 0.3471998553985149 0  0.2372128969196007 0.2453440460936858 0  0.1943665918892754 0.2580518465884657 0  0.2452139232912363 0.1629124725160763 0  0.2555786751481889 0.1825885041235872 0  2.14640473333793 0.2790222779730848 0  2.145589594789407 0.1282024626544199 0  0.1486651579751984 0.1726583296292201 0  0.550000000001476 0.3603327897285098 0  0.0505668771231032 0.3660023622363767 0  1.049999999997169 0.05217028468202135 0  1.244771793631775 0.05744029386223062 0  0.1356759337238615 0.1094447816941579 0  0.5872326411628903 0.2223148728195226 0  0.2168458206248643 0.2558159203714847 0  1.749999999998732 0.05166028789524129 0  0.2855257256666041 0.1763246086558152 0  1.92
[...]
<PointData  Vectors="f_22"> 
<DataArray  type="Float64"  Name="f_22"  NumberOfComponents="3" format="ascii">0.0000000000000000e+00 0.0000000000000000e+00 0.0000000000000000e+00  0.0000000000000000e+00 0.0000000000000000e+00 0.0000000000000000e+00  0.0000000000000000e+00 0.0000000000000000e+00 0.0000000000000000e+00  0.0000000000000000e+00 0.0000000000000000e+00 0.0000000000000000e+00  0.0000000000000000e+00 0.0000000000000000e+00 0.0000000000000000e+00  0.0000000000000000e+00 0.0000000000000000e+00 0.0000000000000000e+00  0.0000000000000000e+00 0.0000000000000000e+00 0.0000000000000000e+00  0.0000000000000000e+00 0.0000000000000000e+00 0.0000000000000000e+00  0.0000000000000000e+00 0.0000000000000000e+00 0.0000000000000000e+00  0.0000000000000000e+00 0.0000000000000000e+00 0.0000000000000000e+00  0.0000000000000000e+00 0.0000000000000000e+00 0.0000000000000000e+00  0.0000000000000000e+00 0.0000000000000000e+00 0.0000000000000000e+00  0.0000000000000000e+00 0.0000000000000000e+00 0.0000000000000000e+00  0.0000000000000000e+00 0.0000000000000000e+00 0.0000000000000000e+00  0.0000000000000000e+00 0.0000000000000000e+00 0.0000000000000000e+00  0.0000000000000000e+00 0.0000000000000000e+00 0.0000000000000000e+00  0.0000000000000000e+00 0.0000000000000000e+00 0.0000000000000000e+00  0.0000000000000000e+00 0.0000000000000000e+00 0.0000000000000000e+00  0.0000000000000000e+00 0.0000000000000000e+00 0.0000000000000000e+00  0.0000000000000000e+00 0.0000000000000000e+00 0.0000000000000000e+00  0.0000000000000000e+00 0.0000000000000000e+00 0.0000000000000000e+00  0.0000000000000000e+00 0.0000000000000000e+00 0.0000000000000000e+00  0.0000000000000000e+00 0.0000000000000000e+00 0.0000000000000000e+00  0.0000000000000000e+00 0.0000000000000000e+00 0.0000000000000000e+00  0.0000000000000000e+00 0.0000000000000000e+00 0.0000000000000000e+00  0.0000000000000000e+00 0.0000000000000000e+00 0.0000000000000000e+00  0.0000000000000000e+00 0.0000000000000000e+00 0.0000000000000000e+00  0.0000000000000000e+00 0.0000000000000000e+00 0.0000000000000000e+00  0.0000000000000000e+00 0.0000000000000000e+00 0.0000000000000000e+00  0.0000000000000000e+00 0.0000000000000000e+00 0.0000000000000000e+00  0.0000000000000000e+00 0.0000000000000000e+00 0.0000000000000000e+00  0.0000000000000000e+00 0.0000000000000000e+00 0.0000000000000000e+00  0.0000000000000000e+00 0.0000000000000000e+00 0.0000000000000000e+00  0.0000000000000000e+00 0.0000000000000000e+00 0.0000000000000000e+00  0.0000000000000000e+00 0.0000000000000000e+00 0.0000000000000000e+00  0.0000000000000000e+00 0.0000000000000000e+00 0.0000000000000000e+00  0.0000000000000000e+00 0.0000000000000000e+00 0.0000000000000000e+00  0.0000000000000000e+00 0.0000000000000000e+00 0.0000000000000000e+00  0.0000000000000000e+00 0.0000000000000000e+00 0.0000000000000000e+00  0.0000000000000000e+00 0.0000000000000000e+00 0.0000000000000000e+00  0.0000000000000000e+00 0.0000000000000000e+00 0.0000000000000000e+00  0.0000000000000000e+00 0.0000000000000000e+00 0.0000000000000000e+00  0.0000000000000000e+00 0.0000000000000000e+00 0.0000000000000000e+00  0.0000000000000000e+00 0.0000000000000000e+00 0.0000000000000000e+00  0.0000000000000000e+00 0.0000000000000000e+00 0.0000000000000000e+00  0.0000000000000000e+00 0.0000000000000000e+00 0.0000000000000000e+00  0.0000000000000000e+00 0.0000000000000000e+00 0.0000000000000000e+00  0.0000000000000000e+00 0.0000000000000000e+00 0.0000000000000000e+00  0.0000000000000000e+00 0.0000000000000000e+00 0.0000000000000000e+00  0.0000000000000000e+00 0.0000000000000000e+00 0.0000000000000000e+00  0.0000000000000000e+00 0.0000000000000000e+00 0.0000000000000000e+00  0.0000000000000000e+00 0.0000000000000000e+00 0.0000000000000000e+00  0.0000000000000000e+00 0.0000000000000000e+00 0.0000000000000000e+00  0.0000000000000000e+00 0.0000000000000000e+00 0.0000000000000000e+00  0.0000000000000000e+00 0.0000000000000000e+00 0.0000000000000000e+00  0.0000000000000000e+00 0.0000000000000000e+00 0.0000000000000000e+00  0.0000000000000000e+00 0.0000000000000000e+00 0.0000000000000000e+00  1.1134197405479362e+00 -1.0274003464672206e-04 0.0000000000000000e+00  1.2327422369416148e+00 -8.8831581371405367e-05 0.0000000000000000e+00  1.2327055560065561e+00 5.3939659842884216e-05 0.0000000000000000e+00  1.1136664491755810e+00 4.5797786881176478e-05 0.0000000000000000e+00  0.0000000000000000e+00 0.0000000000000000e+00 0.0000000000000000e+00  0.0000000000000000e+00 0.0000000000000000e+00 0.0000000000000000e+00  0.0000000000000000e+00 0.0000000000000000e+00 0.0000000000000000e+00  0.0000000000000000e+00 0.0000000000000000e+00 0.0000000000000000e+00  0.0000000000000000e+00 0.0000000000000000e+00 0.0000000000000000e+00  0.0000000000000000e+00 0.0000000000000000e+00 0.0000000000000000e+00  0.0000000000000000e+00 0.0000000000000000e+00 0.0000000000000000e+00  0.0000000000000000e+00 0.0000000000000000e+00 0.0000000000000000e+00  0.0000000000000000e+00 0.0000000000000000e+00 0.0000000000000000e+00  0.0000000000000000e+00 0.0000000000000000e+00 0.0000000000000000e+00  0.0000000000000000e+00 0.0000000000000000e+00 0.0000000000000000e+00  0.0000000000000000e+00 0.0000000000000000e+00 0.0000000000000000e+00  0.0000000000000000e+00 0.0000000000000000e+00 0.0000000000000000e+00  0.0000000000000000e+00 0.0000000000000000e+00 0.0000000000000000e+00  0.0000000000000000e+00 0.0000000000000000e+00 0.0000000000000000e+00  0.0000000000000000e+00 0.0000000000000000e+00 0.0000000000000000e+00  0.0000000000000000e+00 0.0000000000000000e+00 0.0000000000000000e+00  0.0000000000000000e+00 0.0000000000000000e+00 0.0000000000000000e+00  0.0000000000000000e+00 0.0000000000000000e+00 0.0000000000000000e+00  0.0000000000000000e+00 0.0000000000000000e+00 0.0000000000000000e+00  0.0000000000000000e+00 0.0000000000000000e+00 0.0000000000000000e+00  9.6000004944968642e-01 0.0000000000000000e+00 0.0000000000000000e+00  1.4400000741758519e+00 0.0000000000000000e+00 0.0000000000000000e+00  1.4400000741784300e+00 0.0000000000000000e+00 0.0000000000000000e+00  9.6000004945332573e-01 0.0000000000000000e+00 0.0000000000000000e+00  -3.6690366250365186e-01 -2.3883371404485565e-01 0.0000000000000000e+00  2.8331355548588943e-01 -1.2607592303809495e-01 0.0000000000000000e+00  7.9002896128038930e-02 -5.4553080435587070e-02 0.0000000000000000e+00  1.8614695535846584e+00 -1.0350449992581631e-01 0.0000000000000000e+00  1.9598155895711906e+00 8.8554932798598593e-02 0.0000000000000000e+00  1.4674797632040055e+00 2.1658645489316633e-01 0.0000000000000000e+00  1.3196531345715181e+00 3.5630757760578541e-01 0.0000000000000000e+00  1.3335121992797041e+00 2.6570088483974930e-01 0.0000000000000000e+00  1.3053219344068958e+00 -6.5588350313692867e-02 0.0000000000000000e+00  1.2608596045202796e+00 -3.2191196393370353e-01 0.0000000000000000e+00  1.4048935012497010e+00 -3.8051595632431501e-01 0.0000000000000000e+00  -2.2871726853141167e-01 -3.5089622668623734e-02 0.0000000000000000e+00  1.2343232720750525e+00 -1.9811731879724960e-04 0.0000000000000000e+00  1.8903947141008196e-02 -7.1359891944013099e-02 0.0000000000000000e+00  -9.9326558386748143e-02 9.8079037806120470e-02 0.0000000000000000e+00  5.2027700037159896e-01 6.5063705898548096e-02 0.0000000000000000e+00  2.7574786121612471e-01 7.5820971593421216e-02 0.0000000000000000e+00  1.8795909998168621e+00 -2.6233435831188651e-01 0.0000000000000000e+00  1.2355805822967889e+00 -2.0466258980009935e-02 0.0000000000000000e+00  1.1831415059072707e+00 -5.8297400693658706e-02 0.0000000000000000e+00  1.4520454005266288e+00 1.4559150564260109e-01 0.0000000000000000e+00  1.7320517321531335e+00 2.1304366105067443e-01 0.0000000000000000e+00  1.3551467612059171e+00 -1.5541350992343926e-02 0.0000000000000000e+00  8.4485729437098789e-01 -6.6760763029462669e-02 0.0000000000000000e+00  2.0044380380164810e+00 4.4427729954770973e-01 0.0000000000000000e+00  1.8709683931837893e+00 6.4890812095979922e-01 0.0000000000000000e+00  1.4983873981036775e+00 7.8208062160194003e-01 0.0000000000000000e+00  1.1498604152474410e+00 5.6996182702022880e-01 0.0000000000000000e+00  9.3939455548021489e-01 1.1453151922985313e-01 0.0000000000000000e+00  9.8137283882294357e-01 -3.9017023178065624e-01 0.0000000000000000e+00  1.2840805365387715e+00 -6.9540603743722418e-01 0.0000000000000000e+00  1.6391470622307900e+00 -7.2050646446257394e-01 0.0000000000000000e+00  1.8948290282535447e+00 -5.3985870472554198e-01 0.0000000000000000e+00  1.2345826819129122e+00 -3.1213660565146688e-03 0.0000000000000000e+00  1.4449498581686746e+00 1.0902646621777803e-02 0.0000000000000000e+00  1.2813795550753442e+00 1.0349072445483696e-02 0.0000000000000000e+00  -1.3108731015102357e-01 -1.5952529336259926e-02 0.0000000000000000e+00  1.8766266729896919e+00 3.4196596476306862e-01 0.0000000000000000e+00  1.7817135868303646e+00 -1.1929796299871932e-01 0.0000000000000000e+00  1.7839516827281363e+00 -9.9128538334326818e-02 0.0000000000000000e+00  1.2193197200521924e+00 -1.0048798263054671e-05 0.0000000000000000e+00  1.2245023673565036e+00 1.1766029463094469e-05 0.0000000000000000e+00  -8.8148895213655182e-02 1.2365777078924349e-01 0.0000000000000000e+00  1.4973350781594486e+00 -1.5149730784406229e-01 0.0000000000000000e+00  1.2086321194190197e+00 -3.5595650491260304e-05 0.0000000000000000e+00  1.2896107874888327e+00 -4.8335265217181393e-02 0.0000000000000000e+00  1.3605790431409555e+00 -1.2208412832249978e-01 0.0000000000000000e+00  1.2131221819015123e+00 -4.4966773050767736e-04 0.0000000000000000e+00  1.2234814297536207e+00 -5.4875746242545207e-04 0.0000000000000000e+00  -7.8238550322086320e-02 -7.1785840534525996e-02 0.0000000000000000e+00  1.3078805239468980e+00 1.0968589302786928e-01 0.0000000000000000e+00  1.4501353973840614e+00 -5.9574619849983461e-02 0.0000000000000000e+00  1.0799393562898181e+00 1.7450277476208378e-01 0.0000000000000000e+00  1.0422394330736457e+00 5.5188599064791599e-01 0.0000000000000000e+00  1.7502268686385016e+00 8.6498410875524889e-01 0.0000000000000000e+00  1.2392412692138173e+00 9.5301511019164009e-01 0.0000000000000000e+00  7.6203806906404969e-01 5.2278306287799292e-01 0.0000000000000000e+00  6.4388858005582539e-01 -1.8598886170620046e-01 0.0000000000000000e+00  2.0199231891791243e+00 6.0094124423998474e-01 0.0000000000000000e+00  1.8861706760246928e+00 -3.1807213412598329e-01 0.0000000000000000e+00  1.4883222347582703e+00 2.1303500316385041e-01 0.0000000000000000e+00  9.5922268436142810e-01 -7.9063992412885598e-01 0.0000000000000000e+00  1.3367925969435854e+00 9.4247247960096370e-02 0.0000000000000000e+00  1.2638372401689639e+00 -2.8972120783285624e-02 0.0000000000000000e+00  1.2137682605824669e+00 -2.7212155604634661e-04 0.0000000000000000e+00  1.1938859027593196e+00 -5.2229344295459685e-03 0.0000000000000000e+00  2.6082926084263847e-01 5.3118840309683321e-02 0.0000000000000000e+00  -6.6705623841011225e-02 1.3922856081469512e-01 0.0000000000000000e+00  -6.2542738545208532e-02 7.1467936574007268e-02 0.0000000000000000e+00  1.7491645917968417e+00 -1.0519622456535760e-01 0.0000000000000000e+00  1.9079149129417610e+00 2.0965182336027652e-02 0.0000000000000000e+00  -1.5022715663126823e-02 -6.6374388759215863e-02 0.0000000000000000e+00  1.5005147355333530e+00 -1.0382100400595438e+00 0.0000000000000000e+00  1.6467398716175212e+00 -3.4648489304757207e-01 0.0000000000000000e+00  4.5640479272639362e-01 4.5370990547065303e-02 0.0000000000000000e+00  1.4233420579225711e+00 1.2618683206787243e-01 0.0000000000000000e+00  1.4583727480092383e+00 1.6445987966719772e-01 0.0000000000000000e+00  1.2186949238491822e+00 9.7536259954927335e-03 0.0000000000000000e+00  1.2526289005351003e+00 1.8716026628656551e-02 0.0000000000000000e+00  1.1751121769832757e+00 2.5787210086871412e-03 0.0000000000000000e+00  3.9959711849379914e-01 -3.7795155371523760e-02 0.0000000000000000e+00  1.6703064402383341e+00 -3.4710570695373405e-01 0.0000000000000000e+00  -5.7819126383880294e-02 -7.8910022819380185e-02 0.0000000000000000e+00  1.5164115384047270e+00 1.1225354085168200e+00 0.0000000000000000e+00  -4.3159729182583734e-02 -3.3902023708498427e-03 0.0000000000000000e+00  1.8873571485728640e+00 7.7417513301682228e-01 0.0000000000000000e+00  8.4542367050881295e-01 9.3271236781110312e-01 0.0000000000000000e+00  4.3033479348432419e-01 2.0998891047532059e-01 0.0000000000000000e+00  1.2288798996859227e+00 8.5915769567199273e-03 0.0000000000000000e+00  1.2343783603773624e+00 -1.3240639534411609e-05 0.0000000000000000e+00  1.4749799163984489e+00 -6.3041105584768315e-03 0.0000000000000000e+00  1.3858506702769684e+00 2.4918674151690898e-01 0.0000000000000000e+00  -5.3747434921958596e-02 9.6911303127920179e-02 0.0000000000000000e+00  5.9134731908533755e-01 -6.1916948138066563e-01 0.0000000000000000e+00  1.0723405138020785e+00 -4.7872673173143525e-02 0.0000000000000000e+00  1.9210419679181114e+00 -8.0212675045167181e-01 0.0000000000000000e+00  1.1724723753980568e+00 -4.1359562623530523e-05 0.0000000000000000e+00  2.8844413825724491e-01 2.9560370221833283e-02 0.0000000000000000e+00  -4.4939157751442715e-01 -2.2699444515465420e-01 0.0000000000000000e+00  1.0535685314128163e+00 -2.1042449450676162e-01 0.0000000000000000e+00  1.1549043014478195e+00 -1.0796481719414635e+00 0.0000000000000000e+00  1.3186052487250000e+00 -1.3149653887732199e-01 0.0000000000000000e+00  8.8290310618840251e-01 -1.1041786780799298e-01 0.0000000000000000e+00  1.2575330843456438e+00 -3.1406652118038732e-02 0.0000000000000000e+00  6.7319843813795688e-01 -6.2642509934828186e-02 0.0000000000000000e+00  -4.6393242124759858e-03 -5.0713039969078673e-02 0.0000000000000000e+00  1.4096516197787323e+00 7.3969404563648630e-02 0.0000000000000000e+00  1.7603369761780854e+00 -5.1582398997025458e-01 0.0000000000000000e+00  1.1120575343288284e+00 -1.1099774366897132e-02 0.0000000000000000e+00  1.7531342776512522e+00 -9.9666059793292094e-01 0.0000000000000000e+00  1.1031248566179042e+00 -4.8321388037180483e-04 0.0000000000000000e+00  1.4904337707707573e+00 -3.6837036182159957e-02 0.0000000000000000e+00  9.9868236993998394e-01 -2.7485987163677942e-03 0.0000000000000000e+00  1.4144220330903490e+00 9.2765810812403232e-02 0.0000000000000000e+00  1.0376360617977647e+00 1.6396712457001614e-01 0.0000000000000000e+00  -1.6713926707992241e-01 5.3187658431500577e-02 0.0000000000000000e+00  1.1079998135145663e+00 5.4576169442834533e-05 0.0000000000000000e+00  1.3664799504385658e+00 4.4248179126786463e-01 0.0000000000000000e+00  1.3511173757713726e+00 -9.0958151209364041e-02 0.0000000000000000e+00  1.2714638243315566e+00 1.7333388081005366e-01 0.0000000000000000e+00  1.2304738193452522e+00 -8.9575245585278452e-03 0.0000000000000000e+00  1.3042185056399123e+00 1.1949944541930166e-01 0.0000000000000000e+00  1.5873477893467740e+00 3.4952610123089001e-01 0.0000000000000000e+00  9.0056334264980153e-01 -3.6297769367701738e-02 0.0000000000000000e+00  1.9026545669057746e+00 -6.6405476311113237e-02 0.0000000000000000e+00  -5.1255357340798349e-02 1.1629466202129823e-01 0.0000000000000000e+00  1.2345270794810543e+00 -9.1974356524967367e-04 0.0000000000000000e+00  1.5840527160036004e+00 4.1070896187959238e-01 0.0000000000000000e+00  1.1986394946106023e+00 4.9311448141045787e-02 0.0000000000000000e+00  1.0783518275630173e+00 -1.1962898092620067e-01 0.0000000000000000e+00  1.0778495826835373e+00 -4.4619069256925662e-04 0.0000000000000000e+00  1.3021064113736869e+00 -6.6653786526170059e-02 0.0000000000000000e+00  1.2900364367386274e+00 9.5174995031640189e-02 0.0000000000000000e+00  1.6415105633465332e+00 3.0161588311156408e-03 0.0000000000000000e+00  -1.4683363537780259e-02 1.2299002642318643e-01 0.0000000000000000e+00  1.2665296532533206e+00 -3.1325493111111746e-01 0.0000000000000000e+00  1.2555116681574603e+00 -3.3912284017302724e-01 0.0000000000000000e+00  1.2074121472321970e+00 1.7869183316004485e-03 0.0000000000000000e+00  1.0654604794762792e+00 6.6132959492200591e-02 0.0000000000000000e+00  1.0733225883612636e+00 1.1392599776787693e-01 0.0000000000000000e+00  1.0229190893601217e+00 8.9576129343175454e-03 0.0000000000000000e+00  1.3738049917579209e+00 -2.2678187481215231e-01 0.0000000000000000e+00  1.8998820463088850e+00 2.2295694548351191e-01 0.0000000000000000e+00  8.4957395153146864e-01 1.4248707082916773e-01 0.0000000000000000e+00  1.0583939012356993e+00 -2.3822286832502479e-01 0.0000000000000000e+00  9.5287802057595494e-01 -1.5868611341211050e-01 0.0000000000000000e+00  -3.5604056424809255e-01 -1.0176919002637484e-01 0.0000000000000000e+00  -1.9617988011611426e-01 3.3218372224986831e-02 0.0000000000000000e+00  1.0411096281356937e+00 5.1905104203432570e-05 0.0000000000000000e+00  1.0073722725881578e+00 -5.2466924627193037e-05 0.0000000000000000e+00  8.1959904840887832e-01 2.7359679030008210e-01 0.0000000000000000e+00  1.3752870121537519e+00 -6.8841892433208290e-02 0.0000000000000000e+00  1.4172319310859450e-04 6.5410581307202662e-02 0.0000000000000000e+00  1.0349670629636245e+00 -8.1209788173957546e-04 0.0000000000000000e+00  1.2304983497577797e+00 -1.8771835999278424e-03 0.0000000000000000e+00  9.3464364916340337e-01 -7.8824319702832112e-06 0.0000000000000000e+00  3.3364256697006586e-02 -8.0089373042660658e-02 0.0000000000000000e+00  8.4082363623150724e-01 3.6279561409618952e-02 0.0000000000000000e+00  1.0229022954369598e+00 -1.9259326121301393e-02 0.0000000000000000e+00  1.0972634682387450e+00 1.1418758386780983e+00 0.0000000000000000e+00  1.6664094012996424e+00 9.6262049739920030e-01 0.0000000000000000e+00  4.5321664673511025e-01 6.6034616038623084e-01 0.0000000000000000e+00  3.0358030553862753e-01 -2.3919383156081275e-01 0.0000000000000000e+00  9.5674782808278325e-01 7.6774282621378696e-03 0.0000000000000000e+00  -3.4017554509607577e-02 5.7454664716203627e-02 0.0000000000000000e+00  1.4048746133162100e+00 3.6989710365594447e-01 0.0000000000000000e+00  -5.9358716442936388e-02 -6.4639685317635656e-02 0.0000000000000000e+00  -3.2365728634516720e-02 -4.4515694301000615e-02 0.0000000000000000e+00  1.2232739735396247e+00 5.4243135226593400e-05 0.0000000000000000e+00  1.2213122862275956e+00 -5.1553887129062816e-05 0.0000000000000000e+00  7.3839751091903161e-01 -9.7866000553017363e-01 0.0000000000000000e+00  1.2124151560092449e+00 -1.0646384124294291e-01 0.0000000000000000e+00  6.1250389200489996e-01 5.3934585352801191e-02 0.0000000000000000e+00  5.6059653376175267e-01 -5.2557051531022185e-02 0.0000000000000000e+00  7.7848629733643404e-01 -3.1215332797281597e-02 0.0000000000000000e+00  1.3757711508166228e+00 -4.7126419943155939e-01 0.0000000000000000e+00  2.3643751435322580e-01 3.3956243137030268e-01 0.0000000000000000e+00  4.5340894087676464e-01 2.8081418882560411e-02 0.0000000000000000e+00  8.7587092081145523e-01 -2.4149498567826655e-04 0.0000000000000000e+00  -1.1434975472422607e-01 -7.1460279882904820e-02 0.0000000000000000e+00  1.0045359739287441e+00 -5.0871640060936057e-05 0.0000000000000000e+00  1.6076286091758474e+00 1.5912239245957385e-01 0.0000000000000000e+00  9.3775836215381803e-01 2.3841478283002995e-03 0.0000000000000000e+00  1.8050930449173124e+00 1.4523944263524169e-01 0.0000000000000000e+00  1.4586819763926826e+00 -9.2917329490228052e-03 0.0000000000000000e+00  1.5784396734280677e+00 5.8967206545182782e-01 0.0000000000000000e+00  8.3342232868714627e-01 -9.5952275109130972e-02 0.0000000000000000e+00  1.2173524666700306e+00 -4.7825108008868284e-03 0.0000000000000000e+00  1.2297829479603777e+00 -1.3279379662056863e-02 0.0000000000000000e+00  1.2054971602469300e+00 -1.0448682140257109e-02 0.0000000000000000e+00  1.2268165776921780e+00 -3.6603252206104300e-03 0.0000000000000000e+00  1.1987882781918029e+00 1.9305502204542736e-03 0.0000000000000000e+00  1.2650181846263653e+00 -3.8626682258274536e-02 0.0000000000000000e+00  1.2622807946432157e+00 -2.5277407290952979e-02 0.0000000000000000e+00  1.1798111155263045e+00 -3.7031862581542715e-02 0.0000000000000000e+00  1.2323225859998310e+00 -9.7625934713164317e-02 0.0000000000000000e+00  1.3070844549119569