<?xml version="1.0"?>
<VTKFile type="UnstructuredGrid"  version="0.1"  >
<UnstructuredGrid>
<Piece  NumberOfPoints="3852" NumberOfCells="7360">
<Points>
<DataArray  type="Float64"  NumberOfComponents="3"  format="ascii">0 0 0  0 0.41 0  2.2 0.41 0  2.2 0 0  0.2 0.15 0  0.15 0.2 0  0.2 0.25 0  0.25 0.2 0  0.2097545161007899 0.1509607359798352 0  0.219134171618224 0.153806023374423 0  0.2277785116509268 0.1584265193848371 0  0.2353553390592504 0.1646446609405956 0  0.2415734806150793 0.1722214883489481 0  0.2461939766255306 0.1808658283816641 0  0.249039264020151 0.1902454838991403 0  0.2490392640201666 0.2097545161007811 0  0.2461939766255869 0.2191341716182 0  0.2415734806151802 0.2277785116509009 0  0.2353553390594108 0.235355339059244 0  0.2277785116510524 0.2415734806150789 0  0.2191341716182962 0.2461939766255471 0  0.209754516100834 0.2490392640201561 0  0.1902454838992189 0.2490392640201666 0  0.1808658283818 0.2461939766255869 0  0.1722214883490991 0.2415734806151802 0  0.164644660940756 0.2353553390594108 0  0.1584265193849211 0.2277785116510524 0  0.1538060233744529 0.2191341716182962 0  0.150960735979844 0.209754516100834 0  0.1509607359798352 0.1902454838992101 0  0.153806023374423 0.180865828381776 0  0.1584265193848371 0.1722214883490732 0  0.1646446609405956 0.1646446609407496 0  0.1722214883489481 0.1584265193849207 0  0.1808658283816641 0.1538060233744694 0  0.1902454838991403 0.150960735979849 0  0.09999999999980318 0 0  0.1999999999996354 0 0  0.2999999999994593 0 0  0.3999999999991452 0 0  0.4999999999988309 0 0  0.599999999998495 0 0  0.6999999999982023 0 0  0.7999999999979096 0 0  0.8999999999975735 0 0  0.9999999999972848 0 0  1.099999999997053 0 0  1.199999999997309 0 0  1.299999999997566 0 0  1.399999999997821 0 0  1.49999999999809 0 0  1.599999999998377 0 0  1.69999999999859 0 0  1.799999999998877 0 0  1.899999999999145 0 0  1.999999999999386 0 0  2.099999999999693 0 0  2.2 0.08199999999981657 0  2.2 0.1639999999995688 0  2.2 0.2459999999995603 0  2.2 0.327999999999785 0  2.100000000000048 0.41 0  2.000000000000269 0.41 0  1.900000000000422 0.41 0  1.800000000000679 0.41 0  1.700000000000931 0.41 0  1.600000000001326 0.41 0  1.500000000001665 0.41 0  1.400000000002032 0.41 0  1.300000000002395 0.41 0  1.200000000002644 0.41 0  1.100000000002865 0.41 0  1.000000000002617 0.41 0  0.900000000002368 0.41 0  0.8000000000021192 0.41 0  0.7000000000018587 0.41 0  0.6000000000015786 0.41 0  0.5000000000013736 0.41 0  0.4000000000010933 0.41 0  0.3000000000008329 0.41 0  0.2000000000005997 0.41 0  0.1000000000003003 0.41 0  0 0.3280000000001975 0  0 0.2460000000004372 0  0 0.1640000000004437 0  0 0.08200000000021695 0  0.439039350479032 0.2235433210862024 0  0.3557293424662716 0.1539377961885917 0  0.3450132387946972 0.2399891502764809 0  0.2900756359792848 0.08507884665974728 0  0.2884413411145515 0.3059878288466324 0  0.2102195502178943 0.3385267178242456 0  0.137328909169326 0.3152847369018352 0  0.08490385663776813 0.2628976192695439 0  0.08063302347471875 0.188368977740952 0  0.1005937615311739 0.1162460982751979 0  0.1621860847198582 0.08598327887900903 0  0.3012864586130264 0.1926027915888804 0  1.999140000000448 0.2049999999995642 0  0.2742354912953259 0.1572259708446958 0  0.2871471664627305 0.2264358039321654 0  0.6542851578645765 0.1981889790488746 0  0.2651366296338276 0.2534562504463119 0  0.2371819217149928 0.0977949043027586 0  1.651678197071202 0.2145186615851206 0  1.349674714201118 0.2086119645070391 0  0.9627539291831038 0.2056711800839285 0  0.2360880502985623 0.2733043913425156 0  1.159884231859056 0.2050429640239795 0  0.2502927927237266 0.1358797630898622 0  0.2080582834123368 0.2835355213895352 0  0.1805439632603489 0.278338480667804 0  0.1486243506827335 0.2626014098227327 0  0.1266658889266303 0.2392753516137401 0  0.1179814841582247 0.2069380844236527 0  0.1225167704961566 0.1764957192948648 0  0.1357996569043286 0.1472158045151807 0  0.1619764829264572 0.126298308975886 0  0.1935640279204225 0.116654032325456 0  1.82457000000085 0.2346439024393236 0  0.8027657238591595 0.149277802568535 0  1.498563450727992 0.2632867809910664 0  0.2770405925201826 0.1924926016722167 0  0.470924801584011 0.09138612536042019 0  0.550693598792917 0.2898604497866635 0  0.381089831438127 0.3238078833671811 0  2.074516462495042 0.125705772324225 0  2.083599037046577 0.2769549245607841 0  0.2692296340100125 0.2210592970306522 0  0.7614733075682367 0.2839235561638241 0  1.536698221979284 0.1258192462655419 0  1.231809489345021 0.1282542717942667 0  1.054759157670174 0.1242749934189342 0  1.754535566851005 0.1223197024158991 0  1.90452621597739 0.1324728094649104 0  0.2672409321155211 0.178737994598723 0  1.254401531996246 0.2902808614622134 0  1.04350934597445 0.2986664252663559 0  0.0749710792305778 0.3208721925318313 0  0.5425289614095572 0.165152457827861 0  0.1663208394680799 0.2644065126118989 0  0.1471335176887868 0.2433864007787126 0  0.1345556779484054 0.219852318055334 0  0.131940483167677 0.1932967226753857 0  0.1941574795820069 0.2685534232066453 0  0.2226696214021025 0.1252682734732412 0  0.2193882214552426 0.2661718674478616 0  0.1396865053227576 0.1677617654469802 0  0.8749487631478475 0.295170577255529 0  1.424301820545763 0.1157348858866879 0  1.918515045506933 0.2902236143624367 0  1.744876807925144 0.306628844405037 0  0.2443979144126529 0.254353837216211 0  0.2569054246570621 0.2306780201523878 0  0.2632507216716993 0.2062296523407826 0  0.4609453431326088 0.3138128990490959 0  0.3578015395476809 0.08253318517696946 0  0.2529777826635333 0.155582948480283 0  0.1580369715200277 0.1487041474358234 0  0.652872088668587 0.3101079993636056 0  0.297147332491062 0.2558065812325378 0  0.6188247313471635 0.1101603945467571 0  0.8951149554961688 0.1123812542864208 0  1.592749166085722 0.2985190085719691 0  1.40420309431358 0.2992155383468256 0  1.649189110727275 0.1000387439201274 0  0.2301663900864273 0.1432830242131801 0  0.2064839406544439 0.1345771465164309 0  0.2548204572493643 0.1702022465417566 0  0.1606700828011604 0.2481621709908606 0  0.2605987457303776 0.1928909671966518 0  0.1826942838524941 0.2594610608897559 0  0.1456438338561037 0.2290651013631561 0  0.1387681034994896 0.2058679665896095 0  1.140902260384949 0.3081952438204152 0  2.123402621966431 0.2039515281261525 0  0.7272188829630218 0.1047469619375249 0  0.2060868819369127 0.2616331638469837 0  0.246763614216289 0.2411610007697902 0  0.1405961691450822 0.1819800466423126 0  1.149638048863541 0.08264492713269313 0  0.1809997740285721 0.1365020267363126 0  1.993198408221569 0.09755938404998035 0  0.2287111352430851 0.2547015941619741 0  0.3818716699056283 0.2060398770290832 0  0.39147508084147 0.2656155699545688 0  0.151201080877373 0.1608659990301362 0  0.0542521118046473 0.1382221876243976 0  0.06190301158313444 0.0685934933767465 0  1.317316039400266 0.1015983144534349 0  0.2176417279723976 0.1415790407114221 0  0.2401571300978209 0.1529210337009423 0  0.2618092962776011 0.3566662607419938 0  0.1941527094396574 0.1377969918002053 0  0.9590486261329707 0.3255353063371385 0  0.1708201090411339 0.1447474051814825 0  1.837592370686806 0.3302992722413595 0  0.3197015570210796 0.1212159119695666 0  0.4155281956943757 0.1409543952531078 0  0.0549491513262805 0.2307535706287103 0  0.1668210562270142 0.3605647861782867 0  0.2854688902460447 0.2093700809023571 0  2.013251581901814 0.3292746985146142 0  0.1192191106244758 0.2809901915857802 0  0.2487958366614321 0.04556523514103697 0  0.09061021186838321 0.2240174335271237 0  1.737143840576958 0.20912817770623 0  0.04515017012776967 0.2784708690411318 0  0.5347554646753627 0.08988970780599832 0  0.977104673723579 0.08241628541188413 0  0.336509991617897 0.2888965225844298 0  0.2569238041969055 0.2173711314485607 0  1.906541186051535 0.2125389476829634 0  0.1762338839607841 0.3102437166134606 0  1.449268841077636 0.201011295143529 0  0.8555371485878378 0.2099663446585434 0  1.837208236203613 0.07556229833764837 0  1.264402545318887 0.1992523923163096 0  1.068181074047183 0.2155119107017876 0  0.3158931250274742 0.3421721218291775 0  0.2731958384900449 0.2373435058667565 0  0.09875906484220501 0.1533097574901186 0  0.7355755433976705 0.2066339904079041 0  1.567440499207928 0.2049999999995983 0  1.329829828222916 0.3295825481537897 0  0.8214190147401245 0.07894167681990104 0  1.525459989258997 0.3394220200696043 0  0.1990897327079506 0.06300531675246424 0  0.244701762210989 0.3062404318132603 0  0.1033853772622983 0.3551443431224104 0  0.1178236825374896 0.07148041782551597 0  0.1558198999929474 0.04409380269139784 0  0.3389178979413869 0.198678920661321 0  0.310790717645908 0.2196004930752872 0  2.125022007676643 0.3402049371791425 0  2.130028889485561 0.06535501282233655 0  0.4821161335597635 0.1626909543876269 0  0.2838678108956019 0.1254276466262967 0  0.5062815929260498 0.2376271077316994 0  1.663059277092996 0.3422301118688678 0  1.82292665764828 0.1574809263836269 0  2.052538557905295 0.05717536030732174 0  0.3078251537889645 0.16056368457456 0  0.8108267070172145 0.3390047366820738 0  1.487254632568403 0.0703866281621833 0  0.155004430757041 0.2369517702015699 0  0.1725545045705267 0.2519594403466565 0  0.1445581653510352 0.2167994984574706 0  0.1420710285613199 0.1942747855116325 0  1.461861739291679 0.3471998553985149 0  0.2372128969196007 0.2453440460936858 0  0.1943665918892754 0.2580518465884657 0  0.2452139232912363 0.1629124725160763 0  0.2555786751481889 0.1825885041235872 0  2.14640473333793 0.2790222779730848 0  2.145589594789407 0.1282024626544199 0  0.1486651579751984 0.1726583296292201 0  0.550000000001476 0.3603327897285098 0  0.0505668771231032 0.3660023622363767 0  1.049999999997169 0.05217028468202135 0  1.244771793631775 0.05744029386223062 0  0.1356759337238615 0.1094447816941579 0  0.5872326411628903 0.2223148728195226 0  0.2168458206248643 0.2558159203714847 0  1.749999999998732 0.05166028789524129 0  0.2855257256666041 0.1763246086558152 0  1.92
[...]
<PointData  Vectors="f_22"> 
<DataArray  type="Float64"  Name="f_22"  NumberOfComponents="3" format="ascii">0.0000000000000000e+00 0.0000000000000000e+00 0.0000000000000000e+00  0.0000000000000000e+00 0.0000000000000000e+00 0.0000000000000000e+00  0.0000000000000000e+00 0.0000000000000000e+00 0.0000000000000000e+00  0.0000000000000000e+00 0.0000000000000000e+00 0.0000000000000000e+00  0.0000000000000000e+00 0.0000000000000000e+00 0.0000000000000000e+00  0.0000000000000000e+00 0.0000000000000000e+00 0.0000000000000000e+00  0.0000000000000000e+00 0.0000000000000000e+00 0.0000000000000000e+00  0.0000000000000000e+00 0.0000000000000000e+00 0.0000000000000000e+00  0.0000000000000000e+00 0.0000000000000000e+00 0.0000000000000000e+00  0.0000000000000000e+00 0.0000000000000000e+00 0.0000000000000000e+00  0.0000000000000000e+00 0.0000000000000000e+00 0.0000000000000000e+00  0.0000000000000000e+00 0.0000000000000000e+00 0.0000000000000000e+00  0.0000000000000000e+00 0.0000000000000000e+00 0.0000000000000000e+00  0.0000000000000000e+00 0.0000000000000000e+00 0.0000000000000000e+00  0.0000000000000000e+00 0.0000000000000000e+00 0.0000000000000000e+00  0.0000000000000000e+00 0.0000000000000000e+00 0.0000000000000000e+00  0.0000000000000000e+00 0.0000000000000000e+00 0.0000000000000000e+00  0.0000000000000000e+00 0.0000000000000000e+00 0.0000000000000000e+00  0.0000000000000000e+00 0.0000000000000000e+00 0.0000000000000000e+00  0.0000000000000000e+00 0.0000000000000000e+00 0.0000000000000000e+00  0.0000000000000000e+00 0.0000000000000000e+00 0.0000000000000000e+00  0.0000000000000000e+00 0.0000000000000000e+00 0.0000000000000000e+00  0.0000000000000000e+00 0.0000000000000000e+00 0.0000000000000000e+00  0.0000000000000000e+00 0.0000000000000000e+00 0.0000000000000000e+00  0.0000000000000000e+00 0.0000000000000000e+00 0.0000000000000000e+00  0.0000000000000000e+00 0.0000000000000000e+00 0.0000000000000000e+00  0.0000000000000000e+00 0.0000000000000000e+00 0.0000000000000000e+00  0.0000000000000000e+00 0.0000000000000000e+00 0.0000000000000000e+00  0.0000000000000000e+00 0.0000000000000000e+00 0.0000000000000000e+00  0.0000000000000000e+00 0.0000000000000000e+00 0.0000000000000000e+00  0.0000000000000000e+00 0.0000000000000000e+00 0.0000000000000000e+00  0.0000000000000000e+00 0.0000000000000000e+00 0.0000000000000000e+00  0.0000000000000000e+00 0.0000000000000000e+00 0.0000000000000000e+00  0.0000000000000000e+00 0.0000000000000000e+00 0.0000000000000000e+00  0.0000000000000000e+00 0.0000000000000000e+00 0.0000000000000000e+00  0.0000000000000000e+00 0.0000000000000000e+00 0.0000000000000000e+00  0.0000000000000000e+00 0.0000000000000000e+00 0.0000000000000000e+00  0.0000000000000000e+00 0.0000000000000000e+00 0.0000000000000000e+00  0.0000000000000000e+00 0.0000000000000000e+00 0.0000000000000000e+00  0.0000000000000000e+00 0.0000000000000000e+00 0.0000000000000000e+00  0.0000000000000000e+00 0.0000000000000000e+00 0.0000000000000000e+00  0.0000000000000000e+00 0.0000000000000000e+00 0.0000000000000000e+00  0.0000000000000000e+00 0.0000000000000000e+00 0.0000000000000000e+00  0.0000000000000000e+00 0.0000000000000000e+00 0.0000000000000000e+00  0.0000000000000000e+00 0.0000000000000000e+00 0.0000000000000000e+00  0.0000000000000000e+00 0.0000000000000000e+00 0.0000000000000000e+00  0.0000000000000000e+00 0.0000000000000000e+00 0.0000000000000000e+00  0.0000000000000000e+00 0.0000000000000000e+00 0.0000000000000000e+00  0.0000000000000000e+00 0.0000000000000000e+00 0.0000000000000000e+00  0.0000000000000000e+00 0.0000000000000000e+00 0.0000000000000000e+00  0.0000000000000000e+00 0.0000000000000000e+00 0.0000000000000000e+00  0.0000000000000000e+00 0.0000000000000000e+00 0.0000000000000000e+00  0.0000000000000000e+00 0.0000000000000000e+00 0.0000000000000000e+00  0.0000000000000000e+00 0.0000000000000000e+00 0.0000000000000000e+00  0.0000000000000000e+00 0.0000000000000000e+00 0.0000000000000000e+00  0.0000000000000000e+00 0.0000000000000000e+00 0.0000000000000000e+00  0.0000000000000000e+00 0.0000000000000000e+00 0.0000000000000000e+00  1.0473822709165963e+00 -8.8664179009162569e-02 0.0000000000000000e+00  1.5950106971477198e+00 -1.1995288226651714e-01 0.0000000000000000e+00  1.2693335931430074e+00 -4.2519633603815957e-02 0.0000000000000000e+00  8.6649473504607022e-01 2.4380007758528652e-02 0.0000000000000000e+00  0.0000000000000000e+00 0.0000000000000000e+00 0.0000000000000000e+00  0.0000000000000000e+00 0.0000000000000000e+00 0.0000000000000000e+00  0.0000000000000000e+00 0.0000000000000000e+00 0.0000000000000000e+00  0.0000000000000000e+00 0.0000000000000000e+00 0.0000000000000000e+00  0.0000000000000000e+00 0.0000000000000000e+00 0.0000000000000000e+00  0.0000000000000000e+00 0.0000000000000000e+00 0.0000000000000000e+00  0.0000000000000000e+00 0.0000000000000000e+00 0.0000000000000000e+00  0.0000000000000000e+00 0.0000000000000000e+00 0.0000000000000000e+00  0.0000000000000000e+00 0.0000000000000000e+00 0.0000000000000000e+00  0.0000000000000000e+00 0.0000000000000000e+00 0.0000000000000000e+00  0.0000000000000000e+00 0.0000000000000000e+00 0.0000000000000000e+00  0.0000000000000000e+00 0.0000000000000000e+00 0.0000000000000000e+00  0.0000000000000000e+00 0.0000000000000000e+00 0.0000000000000000e+00  0.0000000000000000e+00 0.0000000000000000e+00 0.0000000000000000e+00  0.0000000000000000e+00 0.0000000000000000e+00 0.0000000000000000e+00  0.0000000000000000e+00 0.0000000000000000e+00 0.0000000000000000e+00  0.0000000000000000e+00 0.0000000000000000e+00 0.0000000000000000e+00  0.0000000000000000e+00 0.0000000000000000e+00 0.0000000000000000e+00  0.0000000000000000e+00 0.0000000000000000e+00 0.0000000000000000e+00  0.0000000000000000e+00 0.0000000000000000e+00 0.0000000000000000e+00  0.0000000000000000e+00 0.0000000000000000e+00 0.0000000000000000e+00  9.6000005396043553e-01 0.0000000000000000e+00 0.0000000000000000e+00  1.4400000809419755e+00 0.0000000000000000e+00 0.0000000000000000e+00  1.4400000809445539e+00 0.0000000000000000e+00 0.0000000000000000e+00  9.6000005396407484e-01 0.0000000000000000e+00 0.0000000000000000e+00  1.0282143652140399e+00 -1.0044900904395808e+00 0.0000000000000000e+00  7.7763807508914776e-02 3.9166266066590122e-01 0.0000000000000000e+00  7.4783525830669595e-01 1.8748304858926637e-01 0.0000000000000000e+00  1.7313758227229896e+00 4.5179127230187251e-02 0.0000000000000000e+00  1.9760028614957905e+00 2.6668452902330705e-02 0.0000000000000000e+00  1.4602740515302592e+00 2.0132805684332991e-01 0.0000000000000000e+00  1.3184110523180392e+00 3.5341776734268987e-01 0.0000000000000000e+00  1.3343687924097039e+00 2.6106849150951178e-01 0.0000000000000000e+00  1.3072151339379128e+00 -6.7305149347673038e-02 0.0000000000000000e+00  1.2645603855504508e+00 -3.1472569969738518e-01 0.0000000000000000e+00  1.4042627605414244e+00 -3.4628382959778498e-01 0.0000000000000000e+00  -3.1952736530441561e-01 3.4639909647965628e-01 0.0000000000000000e+00  1.4857185443787331e+00 -3.7858139941998221e-02 0.0000000000000000e+00  9.1988974023871267e-02 2.7045783486912542e-02 0.0000000000000000e+00  8.0181163621139973e-03 3.3600196890982492e-01 0.0000000000000000e+00  1.3869285863957181e+00 5.8994246638841175e-01 0.0000000000000000e+00  2.8556193201565200e-01 8.8743382909880472e-02 0.0000000000000000e+00  1.8599445637428909e+00 -1.5080911166129696e-01 0.0000000000000000e+00  1.4609669049011684e+00 -3.4607121972920463e-01 0.0000000000000000e+00  1.5400724946934594e+00 2.7400421623530441e-01 0.0000000000000000e+00  1.7274481124028873e+00 2.6836421033299268e-01 0.0000000000000000e+00  1.7930749195450850e+00 1.9908829212002199e-01 0.0000000000000000e+00  1.6240984679428812e+00 -3.9794603197254103e-01 0.0000000000000000e+00  1.1377146330608552e+00 1.6885307626525656e-03 0.0000000000000000e+00  2.0268336001353799e+00 4.3377871373153865e-01 0.0000000000000000e+00  1.8876705132080855e+00 6.4895836546181740e-01 0.0000000000000000e+00  1.5088244604804075e+00 7.8855793303595678e-01 0.0000000000000000e+00  1.1557753776316591e+00 5.7728456638208936e-01 0.0000000000000000e+00  9.4257580048127187e-01 1.2214985401194282e-01 0.0000000000000000e+00  9.8455390572413526e-01 -3.8171152771090533e-01 0.0000000000000000e+00  1.2920647978939028e+00 -6.8293606291256004e-01 0.0000000000000000e+00  1.6568687726033458e+00 -6.9337802255538328e-01 0.0000000000000000e+00  1.9200797203600282e+00 -4.8067160100050749e-01 0.0000000000000000e+00  1.5109392892459181e+00 2.9876898579715477e-01 0.0000000000000000e+00  1.1527858350944653e+00 -7.6299279190128377e-01 0.0000000000000000e+00  1.4118030094311507e+00 8.3505417467918855e-02 0.0000000000000000e+00  -1.8040671232148631e-01 1.7821451346541814e-01 0.0000000000000000e+00  1.7869095701175117e+00 1.3885451170986254e-01 0.0000000000000000e+00  9.4409905686411333e-01 9.5868521731614240e-02 0.0000000000000000e+00  1.6712480462638075e+00 -3.1762865830380294e-01 0.0000000000000000e+00  1.1897183935694053e+00 -1.4166791739697840e-01 0.0000000000000000e+00  1.3593433317610584e+00 -2.0611732003251229e-01 0.0000000000000000e+00  -5.2433207145013774e-02 2.7684241591008368e-01 0.0000000000000000e+00  1.7776458831364683e+00 -5.5713627665972709e-01 0.0000000000000000e+00  1.1578387683885407e+00 -5.7753579657806739e-02 0.0000000000000000e+00  1.2113486641822275e+00 -6.3014730499438210e-01 0.0000000000000000e+00  1.0418082928086256e+00 4.1565639774653718e-01 0.0000000000000000e+00  1.5273483392906084e+00 2.5449967902404158e-01 0.0000000000000000e+00  1.1924372813505262e+00 8.0566485151568848e-02 0.0000000000000000e+00  -1.2282853391794160e-01 2.7766101577451355e-02 0.0000000000000000e+00  1.1053112753378815e+00 -3.5354124478563498e-01 0.0000000000000000e+00  1.2600226813300168e+00 3.9205951722033960e-01 0.0000000000000000e+00  1.0778691260220064e+00 1.6832392053014017e-01 0.0000000000000000e+00  1.6223780848274685e+00 4.8374580642725334e-01 0.0000000000000000e+00  1.7661371675874220e+00 8.7156699091610956e-01 0.0000000000000000e+00  1.2499894180029745e+00 9.6486160859129499e-01 0.0000000000000000e+00  7.6736568619694079e-01 5.3549422433133487e-01 0.0000000000000000e+00  6.4591819735734768e-01 -1.7452147643463423e-01 0.0000000000000000e+00  2.0462248999470631e+00 6.0161013099728111e-01 0.0000000000000000e+00  1.9899708280870727e+00 -2.3558107041549853e-01 0.0000000000000000e+00  1.5323681215575118e+00 2.1118839004876866e-01 0.0000000000000000e+00  9.6339289727160904e-01 -7.8104902012733723e-01 0.0000000000000000e+00  8.9533808445223406e-01 -2.7723762166386540e-01 0.0000000000000000e+00  1.1523769758306037e+00 2.5295016296083428e-01 0.0000000000000000e+00  1.3926628905347942e+00 1.9446320408097009e-01 0.0000000000000000e+00  9.9216978787056864e-01 -6.6698123862461225e-02 0.0000000000000000e+00  2.6473813239339533e-01 4.5299441524460853e-02 0.0000000000000000e+00  -5.2388569812633824e-02 1.7316932299424986e-01 0.0000000000000000e+00  -6.1422861978029902e-02 1.9316870306619294e-01 0.0000000000000000e+00  1.3001543580873194e+00 -3.1638518198866472e-01 0.0000000000000000e+00  1.5904890730859802e+00 9.1917092787105831e-02 0.0000000000000000e+00  6.7042380501883853e-02 -5.9576062177485019e-02 0.0000000000000000e+00  1.5175303115496550e+00 -1.0276409004362748e+00 0.0000000000000000e+00  1.3710442143747776e+00 1.5170544342536643e-01 0.0000000000000000e+00  6.1996972423132657e-01 1.4119892812788798e-01 0.0000000000000000e+00  1.2768251986924055e+00 3.0480623745071123e-01 0.0000000000000000e+00  1.4205855159250442e+00 1.1110016130354347e-02 0.0000000000000000e+00  1.2480407712476693e+00 -2.2915156354384975e-01 0.0000000000000000e+00  1.0925776179791444e+00 4.6263629092494923e-01 0.0000000000000000e+00  1.1244416041520093e+00 -3.2155179510803028e-01 0.0000000000000000e+00  5.7153046451250678e-01 -3.0871079720555116e-03 0.0000000000000000e+00  1.8112200534732104e+00 -3.1181622289393285e-01 0.0000000000000000e+00  -6.9185610886872334e-02 -7.9080192519394701e-02 0.0000000000000000e+00  1.5314646730034649e+00 1.1347089465344353e+00 0.0000000000000000e+00  -5.7337003268623080e-02 7.9387542051363488e-02 0.0000000000000000e+00  1.9095598186076856e+00 7.8071608359303324e-01 0.0000000000000000e+00  8.5392297932670858e-01 9.4759286222952654e-01 0.0000000000000000e+00  4.3320208124400944e-01 2.2430121317389751e-01 0.0000000000000000e+00  1.3531527115306226e+00 -2.0826900261988265e-01 0.0000000000000000e+00  1.6001729271190870e+00 -3.3358658258385160e-01 0.0000000000000000e+00  5.8338652492188103e-01 4.4785282455944452e-02 0.0000000000000000e+00  1.4140876227169408e+00 2.5106728768692033e-01 0.0000000000000000e+00  -6.4964808879917998e-02 7.9220194768382754e-02 0.0000000000000000e+00  5.9247455876618105e-01 -6.0845571164948742e-01 0.0000000000000000e+00  4.2981724924888792e-01 -1.6798380443045596e-01 0.0000000000000000e+00  1.9687205316816674e+00 -7.7774141680931985e-01 0.0000000000000000e+00  9.5155852124237061e-01 -1.7895997648894477e-02 0.0000000000000000e+00  2.9517915902218544e-01 3.3653296491287968e-02 0.0000000000000000e+00  8.2443419238547935e-02 -1.7086757224337491e-02 0.0000000000000000e+00  1.9130563653050148e+00 -6.5814914384062007e-01 0.0000000000000000e+00  1.1634381892366954e+00 -1.0730417094092091e+00 0.0000000000000000e+00  1.3199435020588068e+00 -1.3495320829352300e-01 0.0000000000000000e+00  8.8397919125120938e-01 -1.1046963921752573e-01 0.0000000000000000e+00  1.3895249352447505e+00 2.0035143800252306e-01 0.0000000000000000e+00  8.4885203065187631e-01 -3.7017888207824930e-02 0.0000000000000000e+00  6.5475446414841973e-02 -4.3377601458037457e-02 0.0000000000000000e+00  1.3816244871130172e+00 4.0954398880522852e-02 0.0000000000000000e+00  1.8676638120823530e+00 -4.9915246790293000e-01 0.0000000000000000e+00  5.6163686325747519e-01 1.7372292249846574e-01 0.0000000000000000e+00  1.7897697601890219e+00 -9.8888245715047918e-01 0.0000000000000000e+00  8.0139689582363582e-01 1.2358347960832350e-01 0.0000000000000000e+00  1.6634486592989655e+00 2.3757238093414754e-01 0.0000000000000000e+00  5.1350880803296506e-01 -1.0291353393044951e-01 0.0000000000000000e+00  1.4148843256455770e+00 8.6177685374776200e-02 0.0000000000000000e+00  1.0280311838930059e+00 1.5933411947828030e-01 0.0000000000000000e+00  -1.5662946342358183e-01 3.1786824825528576e-01 0.0000000000000000e+00  1.0599449922576802e+00 -5.8456545301978684e-02 0.0000000000000000e+00  1.3689842004463075e+00 4.4156971288426572e-01 0.0000000000000000e+00  1.2575565372607873e+00 -3.3931607821073302e-02 0.0000000000000000e+00  1.2734789130858648e+00 1.7216774338818280e-01 0.0000000000000000e+00  1.3448132015769285e+00 -1.3282817951024801e-02 0.0000000000000000e+00  1.3038864298224968e+00 1.1242568546277304e-01 0.0000000000000000e+00  1.6345794666110116e+00 3.9524002284723347e-01 0.0000000000000000e+00  1.0052373255029523e+00 7.8455945912913994e-02 0.0000000000000000e+00  2.1011614268423409e+00 -1.9289510713920668e-01 0.0000000000000000e+00  -4.0194337199405794e-02 1.6485767040520558e-01 0.0000000000000000e+00  1.5943105183918802e+00 2.3696505341080079e-01 0.0000000000000000e+00  1.5875391744238379e+00 4.0514509643335977e-01 0.0000000000000000e+00  1.4660180171014501e+00 3.4443035773769820e-01 0.0000000000000000e+00  1.4479262894623646e+00 -4.2950526843610437e-01 0.0000000000000000e+00  8.5915990515865714e-01 1.0462139371708304e-01 0.0000000000000000e+00  1.4217558230911858e+00 -3.3797768732396222e-01 0.0000000000000000e+00  1.4362554810938837e+00 3.5678783769832828e-01 0.0000000000000000e+00  1.5953434659941630e+00 -8.2490238557717879e-02 0.0000000000000000e+00  5.2130852696300592e-02 2.4057914973452244e-01 0.0000000000000000e+00  1.2701541382542567e+00 -3.0936113472689641e-01 0.0000000000000000e+00  1.4727011288029068e+00 6.8510759695543724e-02 0.0000000000000000e+00  1.5564933469557900e+00 -2.9066106472735220e-01 0.0000000000000000e+00  5.4418540318906672e-01 3.6536239420154923e-02 0.0000000000000000e+00  9.8177411661411440e-01 -1.8115462567319579e-01 0.0000000000000000e+00  1.0761486184369635e+00 -1.1917399463452787e-01 0.0000000000000000e+00  1.3454142515318115e+00 -1.7788369970599568e-01 0.0000000000000000e+00  1.9096748733416575e+00 1.8997396554620991e-01 0.0000000000000000e+00  8.4357114552266788e-01 1.3941441828579487e-01 0.0000000000000000e+00  1.0583916356703482e+00 -2.2497920352976813e-01 0.0000000000000000e+00  9.3816163738001745e-01 -1.3946239320897749e-01 0.0000000000000000e+00  -3.7519662354668942e-01 5.4344037609383522e-01 0.0000000000000000e+00  -3.3240477925448896e-02 4.5036544615086732e-01 0.0000000000000000e+00  8.0287901071780210e-01 -2.2330593581607133e-02 0.0000000000000000e+00  7.9859748102714745e-01 -6.8601550880902640e-02 0.0000000000000000e+00  6.9373894521315527e-01 -5.4310464102724587e-01 0.0000000000000000e+00  1.6845294669976016e+00 1.1815001212998841e-01 0.0000000000000000e+00  8.4976924394020170e-01 -5.1279444744502189e-01 0.0000000000000000e+00  7.3386247931315174e-01 -7.4969327470261901e-02 0.0000000000000000e+00  1.5513654603190332e+00 3.7245371385718928e-01 0.0000000000000000e+00  6.3731222833867218e-01 -3.3144864092353357e-02 0.0000000000000000e+00  -1.2236335639553441e-02 2.8033583295471415e-01 0.0000000000000000e+00  8.3061025995969262e-01 -1.5539074270733446e-02 0.0000000000000000e+00  5.7573521537817529e-01 1.4968536824887543e-01 0.0000000000000000e+00  1.1085307379007618e+00 1.1556513102587771e+00 0.0000000000000000e+00  1.6836278245060350e+00 9.7203978865297958e-01 0.0000000000000000e+00  4.5832876076548085e-01 6.7532262827547540e-01 0.0000000000000000e+00  3.0421989588613363e-01 -2.2684767448381526e-01 0.0000000000000000e+00  1.0538438312120131e+00 4.9720159554574241e-02 0.0000000000000000e+00  -4.4654102315276764e-02 5.2972772133470097e-02 0.0000000000000000e+00  1.4248829190237995e+00 3.7353582432557420e-01 0.0000000000000000e+00  -5.2981474152574988e-02 -8.7769373122515273e-02 0.0000000000000000e+00  -4.9752915131389609e-02 -2.8839385738381206e-02 0.0000000000000000e+00  1.1513246687572778e+00 -8.5074993442554619e-02 0.0000000000000000e+00  1.3997470064001392e+00 -1.5293688680124196e-01 0.0000000000000000e+00  7.4147809030886069e-01 -9.7353301221802468e-01 0.0000000000000000e+00  8.1001218400654840e-01 7.3342806051309439e-02 0.0000000000000000e+00  6.0987398854889563e-01 5.0287479449339818e-02 0.0000000000000000e+00  6.2058888512652799e-01 9.7392867259215907e-02 0.0000000000000000e+00  9.7503477604750832e-01 -7.4759504905827029e-02 0.0000000000000000e+00  1.3820025918093175e+00 -4.5121667249366254e-01 0.0000000000000000e+00  1.1141975302865177e+00 7.3979840656669471e-01 0.0000000000000000e+00  4.6159243818364470e-01 3.0733659071847313e-02 0.0000000000000000e+00  8.0349214216821119e-01 7.2228730534719315e-02 0.0000000000000000e+00  -2.0660773849833289e-01 1.4250804683527543e-01 0.0000000000000000e+00  6.8015709769762400e-01 1.4086717820737740e-02 0.0000000000000000e+00  1.3671159098657906e+00 6.5007969728664253e-02 0.0000000000000000e+00  4.3488087253316421e-01 -1.1036810165133130e-01 0.0000000000000000e+00  1.8847768613046461e+00 1.1942553759877556e-01 0.0000000000000000e+00  1.4591456406937335e+00 -1.5205003950708161e-02 0.0000000000000000e+00  1.5861920037684158e+00 5.9057598265351663e-01 0.0000000000000000e+00  1.0862793987331740e+00 -1.4041889062143295e-01 0.0000000000000000e+00  1.4606328842941896e+00 -2.3554425202310517e-01 0.0000000000000000e+00  1.3533498263916111e+00 -1.4887414827390824e-01 0.0000000000000000e+00  1.4537369372987119e+00 -4.6322768943599402e-01 0.0000000000000000e+00  1.4913584649696310e+00 9.4141010875490733e-02 0.0000000000000000e+00  1.3699997683374585e+00 -9.5614233536388024e-02 0.0000000000000000e+00  8.4134069548038048e-01 -5.1920158965327501e-01 0.0000000000000000e+00  1.3007779207589332e+00 -3.2930992515596191e-01 0.0000000000000000e+00  1.5015583571992908e+00 -6.0561367381999454e-01 0.0000000000000000e+00  6.5274203771315986e-01 2.5016897504868341e-01 0.0000000000000000e+00  1.4229089706604254e+00 2.1108591397345403e-