<?xml version="1.0"?>
<VTKFile type="UnstructuredGrid"  version="0.1"  >
<UnstructuredGrid>
<Piece  NumberOfPoints="3852" NumberOfCells="7360">
<Points>
<DataArray  type="Float64"  NumberOfComponents="3"  format="ascii">0 0 0  0 0.41 0  2.2 0.41 0  2.2 0 0  0.2 0.15 0  0.15 0.2 0  0.2 0.25 0  0.25 0.2 0  0.2097545161007899 0.1509607359798352 0  0.219134171618224 0.153806023374423 0  0.2277785116509268 0.1584265193848371 0  0.2353553390592504 0.1646446609405956 0  0.2415734806150793 0.1722214883489481 0  0.2461939766255306 0.1808658283816641 0  0.249039264020151 0.1902454838991403 0  0.2490392640201666 0.2097545161007811 0  0.2461939766255869 0.2191341716182 0  0.2415734806151802 0.2277785116509009 0  0.2353553390594108 0.235355339059244 0  0.2277785116510524 0.2415734806150789 0  0.2191341716182962 0.2461939766255471 0  0.209754516100834 0.2490392640201561 0  0.1902454838992189 0.2490392640201666 0  0.1808658283818 0.2461939766255869 0  0.1722214883490991 0.2415734806151802 0  0.164644660940756 0.2353553390594108 0  0.1584265193849211 0.2277785116510524 0  0.1538060233744529 0.2191341716182962 0  0.150960735979844 0.209754516100834 0  0.1509607359798352 0.1902454838992101 0  0.153806023374423 0.180865828381776 0  0.1584265193848371 0.1722214883490732 0  0.1646446609405956 0.1646446609407496 0  0.1722214883489481 0.1584265193849207 0  0.1808658283816641 0.1538060233744694 0  0.1902454838991403 0.150960735979849 0  0.09999999999980318 0 0  0.1999999999996354 0 0  0.2999999999994593 0 0  0.3999999999991452 0 0  0.4999999999988309 0 0  0.599999999998495 0 0  0.6999999999982023 0 0  0.7999999999979096 0 0  0.8999999999975735 0 0  0.9999999999972848 0 0  1.099999999997053 0 0  1.199999999997309 0 0  1.299999999997566 0 0  1.399999999997821 0 0  1.49999999999809 0 0  1.599999999998377 0 0  1.69999999999859 0 0  1.799999999998877 0 0  1.899999999999145 0 0  1.999999999999386 0 0  2.099999999999693 0 0  2.2 0.08199999999981657 0  2.2 0.1639999999995688 0  2.2 0.2459999999995603 0  2.2 0.327999999999785 0  2.100000000000048 0.41 0  2.000000000000269 0.41 0  1.900000000000422 0.41 0  1.800000000000679 0.41 0  1.700000000000931 0.41 0  1.600000000001326 0.41 0  1.500000000001665 0.41 0  1.400000000002032 0.41 0  1.300000000002395 0.41 0  1.200000000002644 0.41 0  1.100000000002865 0.41 0  1.000000000002617 0.41 0  0.900000000002368 0.41 0  0.8000000000021192 0.41 0  0.7000000000018587 0.41 0  0.6000000000015786 0.41 0  0.5000000000013736 0.41 0  0.4000000000010933 0.41 0  0.3000000000008329 0.41 0  0.2000000000005997 0.41 0  0.1000000000003003 0.41 0  0 0.3280000000001975 0  0 0.2460000000004372 0  0 0.1640000000004437 0  0 0.08200000000021695 0  0.439039350479032 0.2235433210862024 0  0.3557293424662716 0.1539377961885917 0  0.3450132387946972 0.2399891502764809 0  0.2900756359792848 0.08507884665974728 0  0.2884413411145515 0.3059878288466324 0  0.2102195502178943 0.3385267178242456 0  0.137328909169326 0.3152847369018352 0  0.08490385663776813 0.2628976192695439 0  0.08063302347471875 0.188368977740952 0  0.1005937615311739 0.1162460982751979 0  0.1621860847198582 0.08598327887900903 0  0.3012864586130264 0.1926027915888804 0  1.999140000000448 0.2049999999995642 0  0.2742354912953259 0.1572259708446958 0  0.2871471664627305 0.2264358039321654 0  0.6542851578645765 0.1981889790488746 0  0.2651366296338276 0.2534562504463119 0  0.2371819217149928 0.0977949043027586 0  1.651678197071202 0.2145186615851206 0  1.349674714201118 0.2086119645070391 0  0.9627539291831038 0.2056711800839285 0  0.2360880502985623 0.2733043913425156 0  1.159884231859056 0.2050429640239795 0  0.2502927927237266 0.1358797630898622 0  0.2080582834123368 0.2835355213895352 0  0.1805439632603489 0.278338480667804 0  0.1486243506827335 0.2626014098227327 0  0.1266658889266303 0.2392753516137401 0  0.1179814841582247 0.2069380844236527 0  0.1225167704961566 0.1764957192948648 0  0.1357996569043286 0.1472158045151807 0  0.1619764829264572 0.126298308975886 0  0.1935640279204225 0.116654032325456 0  1.82457000000085 0.2346439024393236 0  0.8027657238591595 0.149277802568535 0  1.498563450727992 0.2632867809910664 0  0.2770405925201826 0.1924926016722167 0  0.470924801584011 0.09138612536042019 0  0.550693598792917 0.2898604497866635 0  0.381089831438127 0.3238078833671811 0  2.074516462495042 0.125705772324225 0  2.083599037046577 0.2769549245607841 0  0.2692296340100125 0.2210592970306522 0  0.7614733075682367 0.2839235561638241 0  1.536698221979284 0.1258192462655419 0  1.231809489345021 0.1282542717942667 0  1.054759157670174 0.1242749934189342 0  1.754535566851005 0.1223197024158991 0  1.90452621597739 0.1324728094649104 0  0.2672409321155211 0.178737994598723 0  1.254401531996246 0.2902808614622134 0  1.04350934597445 0.2986664252663559 0  0.0749710792305778 0.3208721925318313 0  0.5425289614095572 0.165152457827861 0  0.1663208394680799 0.2644065126118989 0  0.1471335176887868 0.2433864007787126 0  0.1345556779484054 0.219852318055334 0  0.131940483167677 0.1932967226753857 0  0.1941574795820069 0.2685534232066453 0  0.2226696214021025 0.1252682734732412 0  0.2193882214552426 0.2661718674478616 0  0.1396865053227576 0.1677617654469802 0  0.8749487631478475 0.295170577255529 0  1.424301820545763 0.1157348858866879 0  1.918515045506933 0.2902236143624367 0  1.744876807925144 0.306628844405037 0  0.2443979144126529 0.254353837216211 0  0.2569054246570621 0.2306780201523878 0  0.2632507216716993 0.2062296523407826 0  0.4609453431326088 0.3138128990490959 0  0.3578015395476809 0.08253318517696946 0  0.2529777826635333 0.155582948480283 0  0.1580369715200277 0.1487041474358234 0  0.652872088668587 0.3101079993636056 0  0.297147332491062 0.2558065812325378 0  0.6188247313471635 0.1101603945467571 0  0.8951149554961688 0.1123812542864208 0  1.592749166085722 0.2985190085719691 0  1.40420309431358 0.2992155383468256 0  1.649189110727275 0.1000387439201274 0  0.2301663900864273 0.1432830242131801 0  0.2064839406544439 0.1345771465164309 0  0.2548204572493643 0.1702022465417566 0  0.1606700828011604 0.2481621709908606 0  0.2605987457303776 0.1928909671966518 0  0.1826942838524941 0.2594610608897559 0  0.1456438338561037 0.2290651013631561 0  0.1387681034994896 0.2058679665896095 0  1.140902260384949 0.3081952438204152 0  2.123402621966431 0.2039515281261525 0  0.7272188829630218 0.1047469619375249 0  0.2060868819369127 0.2616331638469837 0  0.246763614216289 0.2411610007697902 0  0.1405961691450822 0.1819800466423126 0  1.149638048863541 0.08264492713269313 0  0.1809997740285721 0.1365020267363126 0  1.993198408221569 0.09755938404998035 0  0.2287111352430851 0.2547015941619741 0  0.3818716699056283 0.2060398770290832 0  0.39147508084147 0.2656155699545688 0  0.151201080877373 0.1608659990301362 0  0.0542521118046473 0.1382221876243976 0  0.06190301158313444 0.0685934933767465 0  1.317316039400266 0.1015983144534349 0  0.2176417279723976 0.1415790407114221 0  0.2401571300978209 0.1529210337009423 0  0.2618092962776011 0.3566662607419938 0  0.1941527094396574 0.1377969918002053 0  0.9590486261329707 0.3255353063371385 0  0.1708201090411339 0.1447474051814825 0  1.837592370686806 0.3302992722413595 0  0.3197015570210796 0.1212159119695666 0  0.4155281956943757 0.1409543952531078 0  0.0549491513262805 0.2307535706287103 0  0.1668210562270142 0.3605647861782867 0  0.2854688902460447 0.2093700809023571 0  2.013251581901814 0.3292746985146142 0  0.1192191106244758 0.2809901915857802 0  0.2487958366614321 0.04556523514103697 0  0.09061021186838321 0.2240174335271237 0  1.737143840576958 0.20912817770623 0  0.04515017012776967 0.2784708690411318 0  0.5347554646753627 0.08988970780599832 0  0.977104673723579 0.08241628541188413 0  0.336509991617897 0.2888965225844298 0  0.2569238041969055 0.2173711314485607 0  1.906541186051535 0.2125389476829634 0  0.1762338839607841 0.3102437166134606 0  1.449268841077636 0.201011295143529 0  0.8555371485878378 0.2099663446585434 0  1.837208236203613 0.07556229833764837 0  1.264402545318887 0.1992523923163096 0  1.068181074047183 0.2155119107017876 0  0.3158931250274742 0.3421721218291775 0  0.2731958384900449 0.2373435058667565 0  0.09875906484220501 0.1533097574901186 0  0.7355755433976705 0.2066339904079041 0  1.567440499207928 0.2049999999995983 0  1.329829828222916 0.3295825481537897 0  0.8214190147401245 0.07894167681990104 0  1.525459989258997 0.3394220200696043 0  0.1990897327079506 0.06300531675246424 0  0.244701762210989 0.3062404318132603 0  0.1033853772622983 0.3551443431224104 0  0.1178236825374896 0.07148041782551597 0  0.1558198999929474 0.04409380269139784 0  0.3389178979413869 0.198678920661321 0  0.310790717645908 0.2196004930752872 0  2.125022007676643 0.3402049371791425 0  2.130028889485561 0.06535501282233655 0  0.4821161335597635 0.1626909543876269 0  0.2838678108956019 0.1254276466262967 0  0.5062815929260498 0.2376271077316994 0  1.663059277092996 0.3422301118688678 0  1.82292665764828 0.1574809263836269 0  2.052538557905295 0.05717536030732174 0  0.3078251537889645 0.16056368457456 0  0.8108267070172145 0.3390047366820738 0  1.487254632568403 0.0703866281621833 0  0.155004430757041 0.2369517702015699 0  0.1725545045705267 0.2519594403466565 0  0.1445581653510352 0.2167994984574706 0  0.1420710285613199 0.1942747855116325 0  1.461861739291679 0.3471998553985149 0  0.2372128969196007 0.2453440460936858 0  0.1943665918892754 0.2580518465884657 0  0.2452139232912363 0.1629124725160763 0  0.2555786751481889 0.1825885041235872 0  2.14640473333793 0.2790222779730848 0  2.145589594789407 0.1282024626544199 0  0.1486651579751984 0.1726583296292201 0  0.550000000001476 0.3603327897285098 0  0.0505668771231032 0.3660023622363767 0  1.049999999997169 0.05217028468202135 0  1.244771793631775 0.05744029386223062 0  0.1356759337238615 0.1094447816941579 0  0.5872326411628903 0.2223148728195226 0  0.2168458206248643 0.2558159203714847 0  1.749999999998732 0.05166028789524129 0  0.2855257256666041 0.1763246086558152 0  1.92
[...]
<PointData  Vectors="f_22"> 
<DataArray  type="Float64"  Name="f_22"  NumberOfComponents="3" format="ascii">0.0000000000000000e+00 0.0000000000000000e+00 0.0000000000000000e+00  0.0000000000000000e+00 0.0000000000000000e+00 0.0000000000000000e+00  0.0000000000000000e+00 0.0000000000000000e+00 0.0000000000000000e+00  0.0000000000000000e+00 0.0000000000000000e+00 0.0000000000000000e+00  0.0000000000000000e+00 0.0000000000000000e+00 0.0000000000000000e+00  0.0000000000000000e+00 0.0000000000000000e+00 0.0000000000000000e+00  0.0000000000000000e+00 0.0000000000000000e+00 0.0000000000000000e+00  0.0000000000000000e+00 0.0000000000000000e+00 0.0000000000000000e+00  0.0000000000000000e+00 0.0000000000000000e+00 0.0000000000000000e+00  0.0000000000000000e+00 0.0000000000000000e+00 0.0000000000000000e+00  0.0000000000000000e+00 0.0000000000000000e+00 0.0000000000000000e+00  0.0000000000000000e+00 0.0000000000000000e+00 0.0000000000000000e+00  0.0000000000000000e+00 0.0000000000000000e+00 0.0000000000000000e+00  0.0000000000000000e+00 0.0000000000000000e+00 0.0000000000000000e+00  0.0000000000000000e+00 0.0000000000000000e+00 0.0000000000000000e+00  0.0000000000000000e+00 0.0000000000000000e+00 0.0000000000000000e+00  0.0000000000000000e+00 0.0000000000000000e+00 0.0000000000000000e+00  0.0000000000000000e+00 0.0000000000000000e+00 0.0000000000000000e+00  0.0000000000000000e+00 0.0000000000000000e+00 0.0000000000000000e+00  0.0000000000000000e+00 0.0000000000000000e+00 0.0000000000000000e+00  0.0000000000000000e+00 0.0000000000000000e+00 0.0000000000000000e+00  0.0000000000000000e+00 0.0000000000000000e+00 0.0000000000000000e+00  0.0000000000000000e+00 0.0000000000000000e+00 0.0000000000000000e+00  0.0000000000000000e+00 0.0000000000000000e+00 0.0000000000000000e+00  0.0000000000000000e+00 0.0000000000000000e+00 0.0000000000000000e+00  0.0000000000000000e+00 0.0000000000000000e+00 0.0000000000000000e+00  0.0000000000000000e+00 0.0000000000000000e+00 0.0000000000000000e+00  0.0000000000000000e+00 0.0000000000000000e+00 0.0000000000000000e+00  0.0000000000000000e+00 0.0000000000000000e+00 0.0000000000000000e+00  0.0000000000000000e+00 0.0000000000000000e+00 0.0000000000000000e+00  0.0000000000000000e+00 0.0000000000000000e+00 0.0000000000000000e+00  0.0000000000000000e+00 0.0000000000000000e+00 0.0000000000000000e+00  0.0000000000000000e+00 0.0000000000000000e+00 0.0000000000000000e+00  0.0000000000000000e+00 0.0000000000000000e+00 0.0000000000000000e+00  0.0000000000000000e+00 0.0000000000000000e+00 0.0000000000000000e+00  0.0000000000000000e+00 0.0000000000000000e+00 0.0000000000000000e+00  0.0000000000000000e+00 0.0000000000000000e+00 0.0000000000000000e+00  0.0000000000000000e+00 0.0000000000000000e+00 0.0000000000000000e+00  0.0000000000000000e+00 0.0000000000000000e+00 0.0000000000000000e+00  0.0000000000000000e+00 0.0000000000000000e+00 0.0000000000000000e+00  0.0000000000000000e+00 0.0000000000000000e+00 0.0000000000000000e+00  0.0000000000000000e+00 0.0000000000000000e+00 0.0000000000000000e+00  0.0000000000000000e+00 0.0000000000000000e+00 0.0000000000000000e+00  0.0000000000000000e+00 0.0000000000000000e+00 0.0000000000000000e+00  0.0000000000000000e+00 0.0000000000000000e+00 0.0000000000000000e+00  0.0000000000000000e+00 0.0000000000000000e+00 0.0000000000000000e+00  0.0000000000000000e+00 0.0000000000000000e+00 0.0000000000000000e+00  0.0000000000000000e+00 0.0000000000000000e+00 0.0000000000000000e+00  0.0000000000000000e+00 0.0000000000000000e+00 0.0000000000000000e+00  0.0000000000000000e+00 0.0000000000000000e+00 0.0000000000000000e+00  0.0000000000000000e+00 0.0000000000000000e+00 0.0000000000000000e+00  0.0000000000000000e+00 0.0000000000000000e+00 0.0000000000000000e+00  0.0000000000000000e+00 0.0000000000000000e+00 0.0000000000000000e+00  0.0000000000000000e+00 0.0000000000000000e+00 0.0000000000000000e+00  0.0000000000000000e+00 0.0000000000000000e+00 0.0000000000000000e+00  0.0000000000000000e+00 0.0000000000000000e+00 0.0000000000000000e+00  0.0000000000000000e+00 0.0000000000000000e+00 0.0000000000000000e+00  1.0837932487421036e+00 -1.1805602096603366e-03 0.0000000000000000e+00  1.2503774649418093e+00 -1.2228841652930318e-02 0.0000000000000000e+00  1.2961281256330277e+00 -1.5447273707157332e-02 0.0000000000000000e+00  1.0956267896707907e+00 -1.8185781024307108e-03 0.0000000000000000e+00  0.0000000000000000e+00 0.0000000000000000e+00 0.0000000000000000e+00  0.0000000000000000e+00 0.0000000000000000e+00 0.0000000000000000e+00  0.0000000000000000e+00 0.0000000000000000e+00 0.0000000000000000e+00  0.0000000000000000e+00 0.0000000000000000e+00 0.0000000000000000e+00  0.0000000000000000e+00 0.0000000000000000e+00 0.0000000000000000e+00  0.0000000000000000e+00 0.0000000000000000e+00 0.0000000000000000e+00  0.0000000000000000e+00 0.0000000000000000e+00 0.0000000000000000e+00  0.0000000000000000e+00 0.0000000000000000e+00 0.0000000000000000e+00  0.0000000000000000e+00 0.0000000000000000e+00 0.0000000000000000e+00  0.0000000000000000e+00 0.0000000000000000e+00 0.0000000000000000e+00  0.0000000000000000e+00 0.0000000000000000e+00 0.0000000000000000e+00  0.0000000000000000e+00 0.0000000000000000e+00 0.0000000000000000e+00  0.0000000000000000e+00 0.0000000000000000e+00 0.0000000000000000e+00  0.0000000000000000e+00 0.0000000000000000e+00 0.0000000000000000e+00  0.0000000000000000e+00 0.0000000000000000e+00 0.0000000000000000e+00  0.0000000000000000e+00 0.0000000000000000e+00 0.0000000000000000e+00  0.0000000000000000e+00 0.0000000000000000e+00 0.0000000000000000e+00  0.0000000000000000e+00 0.0000000000000000e+00 0.0000000000000000e+00  0.0000000000000000e+00 0.0000000000000000e+00 0.0000000000000000e+00  0.0000000000000000e+00 0.0000000000000000e+00 0.0000000000000000e+00  0.0000000000000000e+00 0.0000000000000000e+00 0.0000000000000000e+00  9.6000004495221192e-01 0.0000000000000000e+00 0.0000000000000000e+00  1.4400000674296400e+00 0.0000000000000000e+00 0.0000000000000000e+00  1.4400000674322184e+00 0.0000000000000000e+00 0.0000000000000000e+00  9.6000004495585112e-01 0.0000000000000000e+00 0.0000000000000000e+00  5.7926856182029107e-01 -5.8238789915881517e-01 0.0000000000000000e+00  1.2869963240406423e-01 2.8489519153762899e-01 0.0000000000000000e+00  3.5834001033348073e-01 2.4986110864133959e-01 0.0000000000000000e+00  1.7940287374751629e+00 -1.3187400554950480e-02 0.0000000000000000e+00  1.9770680733796837e+00 9.9692964488616351e-02 0.0000000000000000e+00  1.4672962782795727e+00 2.2043044539375936e-01 0.0000000000000000e+00  1.3168251929930945e+00 3.5744604777153105e-01 0.0000000000000000e+00  1.3325560363289348e+00 2.6140107864795387e-01 0.0000000000000000e+00  1.3063377475959237e+00 -6.9826494731640987e-02 0.0000000000000000e+00  1.2642052630869258e+00 -3.2039729208815104e-01 0.0000000000000000e+00  1.4072655842918664e+00 -3.6276535909722568e-01 0.0000000000000000e+00  -2.4334093273473303e-01 1.6454052583274945e-01 0.0000000000000000e+00  1.2390371280316490e+00 1.1262497312994993e-02 0.0000000000000000e+00  5.3121616012797787e-02 -2.7674888247718878e-02 0.0000000000000000e+00  -5.0386863964096869e-02 1.9978585625233009e-01 0.0000000000000000e+00  1.2993023703523783e+00 7.6270744141457969e-01 0.0000000000000000e+00  2.3806811586926829e-01 7.5563938961730415e-02 0.0000000000000000e+00  1.8732089803057941e+00 -2.0045410746468462e-01 0.0000000000000000e+00  1.3734501069584706e+00 1.0305015121874189e-01 0.0000000000000000e+00  1.7506673571455373e+00 -2.3856531488757862e-01 0.0000000000000000e+00  1.3903466259400945e+00 -3.2276511984654188e-01 0.0000000000000000e+00  1.7193892090010749e+00 2.1874998522189673e-01 0.0000000000000000e+00  1.5016967570734236e+00 2.1630273814329777e-03 0.0000000000000000e+00  1.0079749509881808e+00 -3.6728977283666066e-02 0.0000000000000000e+00  2.0048353371873393e+00 4.5298949287644896e-01 0.0000000000000000e+00  1.8698272274161372e+00 6.5508572192820580e-01 0.0000000000000000e+00  1.4976508612769783e+00 7.8484809408533307e-01 0.0000000000000000e+00  1.1498704463457292e+00 5.7067438167251727e-01 0.0000000000000000e+00  9.4026340694312582e-01 1.1443547716656129e-01 0.0000000000000000e+00  9.8390034847566699e-01 -3.8964617045455180e-01 0.0000000000000000e+00  1.2905035736137473e+00 -6.9174018561980399e-01 0.0000000000000000e+00  1.6518070249091925e+00 -7.0746055108767048e-01 0.0000000000000000e+00  1.9119713271451517e+00 -5.0800838931530978e-01 0.0000000000000000e+00  1.3852354431886884e+00 -5.4548952777040111e-02 0.0000000000000000e+00  7.7390495608960597e-01 -2.8121466195867967e-01 0.0000000000000000e+00  1.3099109436747796e+00 -3.7992970671551274e-02 0.0000000000000000e+00  -1.4165828693212870e-01 7.2382984490780677e-02 0.0000000000000000e+00  1.8286277141674150e+00 5.0386336345032846e-02 0.0000000000000000e+00  1.1929515570725446e+00 -1.2905957934496559e-02 0.0000000000000000e+00  1.8296944539552797e+00 -2.1585572905229439e-01 0.0000000000000000e+00  1.2379739560346470e+00 9.9638197319598266e-03 0.0000000000000000e+00  1.2842879660103643e+00 2.1394100781547795e-03 0.0000000000000000e+00  -6.7259376302692034e-02 1.7233925151339768e-01 0.0000000000000000e+00  1.9807815342101089e+00 -4.8917492987956074e-01 0.0000000000000000e+00  1.4617086255324356e+00 5.6748784217790504e-03 0.0000000000000000e+00  1.1057013491510037e+00 1.2136112816606927e-01 0.0000000000000000e+00  1.3621337704072292e+00 2.2451565828356876e-01 0.0000000000000000e+00  1.1997268369212668e+00 1.4606130024838423e-02 0.0000000000000000e+00  1.2467157401542883e+00 -4.1902751785330532e-02 0.0000000000000000e+00  -9.8183137000868656e-02 -2.9235491078136642e-02 0.0000000000000000e+00  1.4408064715656625e+00 -1.6352922193347763e-01 0.0000000000000000e+00  8.6305954345353120e-01 7.8198348565678560e-02 0.0000000000000000e+00  1.0781207407412685e+00 1.7086365702050274e-01 0.0000000000000000e+00  1.1092221113259950e+00 -4.8980069308029527e-02 0.0000000000000000e+00  1.7491434281035592e+00 8.6936839519589315e-01 0.0000000000000000e+00  1.2394931764978712e+00 9.5575495983945191e-01 0.0000000000000000e+00  7.6272503701626904e-01 5.2487213267003630e-01 0.0000000000000000e+00  6.4510635797678684e-01 -1.8453022091194174e-01 0.0000000000000000e+00  2.0151989373231727e+00 6.0755200414037402e-01 0.0000000000000000e+00  1.9491556840562430e+00 -2.7471925453830875e-01 0.0000000000000000e+00  1.4684088931775481e+00 2.1827135830579655e-01 0.0000000000000000e+00  9.6329544816103208e-01 -7.8941035244457469e-01 0.0000000000000000e+00  1.1892604963581250e+00 -5.0902215807973342e-02 0.0000000000000000e+00  1.3832166187148358e+00 -3.0064996355582796e-02 0.0000000000000000e+00  1.2599315878134139e+00 -3.2408362438101448e-03 0.0000000000000000e+00  1.2549139085083885e+00 2.8482153596916859e-02 0.0000000000000000e+00  2.3420493659550048e-01 4.7419756624100751e-02 0.0000000000000000e+00  -5.8037097931394034e-02 1.3207845827178019e-01 0.0000000000000000e+00  -5.5694925841600303e-02 1.0443677869528567e-01 0.0000000000000000e+00  1.5572742280384650e+00 -3.7182646857228940e-01 0.0000000000000000e+00  1.7028437129866423e+00 7.3365378167042777e-02 0.0000000000000000e+00  2.8115756667510598e-02 -7.2665997228811119e-02 0.0000000000000000e+00  1.5128639244141942e+00 -1.0351906882529660e+00 0.0000000000000000e+00  1.3849454880878593e+00 2.1394604488778307e-01 0.0000000000000000e+00  4.5269115899826767e-01 1.1170411764804816e-01 0.0000000000000000e+00  1.6033499215287319e+00 4.9677731444883022e-01 0.0000000000000000e+00  1.1526853917169770e+00 -1.5194693927234099e-01 0.0000000000000000e+00  1.1949206312054927e+00 6.4532819625757340e-02 0.0000000000000000e+00  1.1199605872951590e+00 1.0188655829518363e-01 0.0000000000000000e+00  1.1537539003238919e+00 -5.5591743649487560e-02 0.0000000000000000e+00  4.9219922297710861e-01 -2.1082990443912430e-02 0.0000000000000000e+00  1.7523866344163836e+00 -3.2920239450920308e-01 0.0000000000000000e+00  -6.6686881667996620e-02 -9.1249829251746864e-02 0.0000000000000000e+00  1.5157306547315195e+00 1.1252391267373809e+00 0.0000000000000000e+00  -4.7891487494754581e-02 1.6586206088744393e-02 0.0000000000000000e+00  1.8805580883540332e+00 7.7682591500018727e-01 0.0000000000000000e+00  8.4615357098360011e-01 9.3551378475731017e-01 0.0000000000000000e+00  4.3102629043659663e-01 2.1242731094326503e-01 0.0000000000000000e+00  1.3188102858298656e+00 -2.8189843290184150e-02 0.0000000000000000e+00  1.2586388052500055e+00 1.3649656125584931e-02 0.0000000000000000e+00  9.8171967800360904e-01 -1.0566893718482022e-01 0.0000000000000000e+00  1.3651318277640381e+00 2.5193247559463272e-01 0.0000000000000000e+00  -6.0333577807828304e-02 7.7208446404390702e-02 0.0000000000000000e+00  5.9314093933004652e-01 -6.1805287968655542e-01 0.0000000000000000e+00  9.2609181521611628e-01 -3.1923104392948293e-02 0.0000000000000000e+00  1.9509362545755808e+00 -7.9016440790314824e-01 0.0000000000000000e+00  1.1717695515425406e+00 2.6757368361357889e-04 0.0000000000000000e+00  2.6896929487494203e-01 3.3623730695644442e-02 0.0000000000000000e+00  -2.4795846649156711e-01 2.8767528430386452e-01 0.0000000000000000e+00  1.5758671853758008e+00 -2.6264059356631148e-01 0.0000000000000000e+00  1.1621899691598583e+00 -1.0796437768569445e+00 0.0000000000000000e+00  1.3196826027603794e+00 -1.3559742204167308e-01 0.0000000000000000e+00  8.8413096081532827e-01 -1.1166917737197868e-01 0.0000000000000000e+00  1.0918230854339579e+00 -5.1588815901849668e-02 0.0000000000000000e+00  7.7014215850788148e-01 -4.9868346489522951e-02 0.0000000000000000e+00  3.1422862667121770e-02 -5.1751086155519405e-02 0.0000000000000000e+00  1.4137881593041761e+00 7.2856150486542481e-02 0.0000000000000000e+00  1.8235743941632752e+00 -5.0799296214299727e-01 0.0000000000000000e+00  9.5686841907519460e-01 4.5558654011088662e-02 0.0000000000000000e+00  1.7768516791105393e+00 -9.9453571989985534e-01 0.0000000000000000e+00  1.0681173513603377e+00 2.3024116843389248e-02 0.0000000000000000e+00  1.6396749813349416e+00 1.3927125141140498e-01 0.0000000000000000e+00  5.0030002932021767e-01 4.9084144049494308e-02 0.0000000000000000e+00  1.4142571879329129e+00 8.6929459441154530e-02 0.0000000000000000e+00  1.0345418631491723e+00 1.6576981952518041e-01 0.0000000000000000e+00  -1.4439579909948450e-01 1.6982490273623385e-01 0.0000000000000000e+00  1.0934488990843978e+00 -1.5014274426891621e-03 0.0000000000000000e+00  1.3648090416288621e+00 4.4182481578857397e-01 0.0000000000000000e+00  1.3021809256202574e+00 -5.8012399785662278e-02 0.0000000000000000e+00  1.2715191126753411e+00 1.6954202678365163e-01 0.0000000000000000e+00  1.2761313897549460e+00 1.2346345218375143e-01 0.0000000000000000e+00  1.3036490135824135e+00 1.1443655068279043e-01 0.0000000000000000e+00  1.8453256761956853e+00 3.1620046629567999e-01 0.0000000000000000e+00  1.1383284291356937e+00 1.6305670790125226e-01 0.0000000000000000e+00  1.9997058796738627e+00 -3.7685053038604970e-02 0.0000000000000000e+00  -3.9869229303112784e-02 1.1105173166726458e-01 0.0000000000000000e+00  1.2521206649777488e+00 -6.3342418826752483e-02 0.0000000000000000e+00  1.5824098655431600e+00 4.1525865394105321e-01 0.0000000000000000e+00  1.4660556840270553e+00 8.8405741538925147e-04 0.0000000000000000e+00  1.5670783543577869e+00 -6.5354813347549512e-01 0.0000000000000000e+00  1.0208817857423391e+00 -1.7680357712312612e-02 0.0000000000000000e+00  1.6045089647731943e+00 -5.5365233076518992e-02 0.0000000000000000e+00  1.6511977299119691e+00 6.1062721744247284e-01 0.0000000000000000e+00  1.6594271573382420e+00 -1.4562930045295960e-02 0.0000000000000000e+00  2.5343655324212653e-03 1.6079521565259680e-01 0.0000000000000000e+00  1.2694231678567816e+00 -3.1439058447274321e-01 0.0000000000000000e+00  1.0551695148319502e+00 5.9425775283592763e-01 0.0000000000000000e+00  1.4435941209152532e+00 6.5425858388573732e-02 0.0000000000000000e+00  8.4086110421053817e-01 9.1040048542714008e-03 0.0000000000000000e+00  9.6052744958047520e-01 -8.2277230531719175e-02 0.0000000000000000e+00  8.5136212004239198e-01 1.6410349935299443e-02 0.0000000000000000e+00  1.3613118355594667e+00 -1.9985727195211114e-01 0.0000000000000000e+00  1.9043957231067259e+00 2.3042010633104337e-01 0.0000000000000000e+00  8.4597909116857017e-01 1.4165358445274570e-01 0.0000000000000000e+00  1.0601973128431876e+00 -2.3228773241204687e-01 0.0000000000000000e+00  9.4736207704605524e-01 -1.4860260836945285e-01 0.0000000000000000e+00  -3.3066716100145294e-01 3.3213952490724286e-01 0.0000000000000000e+00  -1.1245352467389139e-01 2.6029310846471149e-01 0.0000000000000000e+00  1.0084539692645822e+00 -7.1797603679077675e-04 0.0000000000000000e+00  9.6163965008450936e-01 9.9821949593706448e-04 0.0000000000000000e+00  2.5416927946123585e-01 -5.2096041195356146e-01 0.0000000000000000e+00  1.5746484886798546e+00 2.8263896559919132e-02 0.0000000000000000e+00  9.1843367708949852e-01 -6.5526955100773510e-01 0.0000000000000000e+00  8.9055390021894087e-01 4.7873992764299440e-02 0.0000000000000000e+00  1.1832762083981647e+00 -4.5776664878708129e-02 0.0000000000000000e+00  8.8732209655871119e-01 1.8289712285139554e-03 0.0000000000000000e+00  -9.1046967899610087e-03 1.2057985623349064e-01 0.0000000000000000e+00  9.4289528628764907e-01 -1.5644335812944879e-01 0.0000000000000000e+00  8.3601759936283426e-01 -3.5705947024889377e-02 0.0000000000000000e+00  1.0971462601523845e+00 1.1436190087976232e+00 0.0000000000000000e+00  1.6615170970526159e+00 9.6319671006109331e-01 0.0000000000000000e+00  4.5383296965651426e-01 6.6276034948245133e-01 0.0000000000000000e+00  3.0425130798192573e-01 -2.3770475155257564e-01 0.0000000000000000e+00  7.5591536060551745e-01 6.5898438212314159e-03 0.0000000000000000e+00  -4.1900375222881453e-02 5.1811734024657052e-02 0.0000000000000000e+00  1.3878361154057812e+00 3.6991765996172438e-01 0.0000000000000000e+00  -5.9097328818371937e-02 -8.4960462122560892e-02 0.0000000000000000e+00  -4.3682317595859090e-02 -5.3496373060534910e-02 0.0000000000000000e+00  1.2840545281646392e+00 -9.1694509318249132e-03 0.0000000000000000e+00  1.2254836991880098e+00 3.1291852363227505e-03 0.0000000000000000e+00  7.4216371951262905e-01 -9.8013017436683258e-01 0.0000000000000000e+00  9.0938922736374361e-01 2.6383611653856668e-02 0.0000000000000000e+00  6.1084811101387582e-01 5.1754502771450689e-02 0.0000000000000000e+00  5.7971949177196613e-01 1.5810992428492095e-02 0.0000000000000000e+00  6.2727666750004429e-01 3.6422204802364189e-02 0.0000000000000000e+00  1.3813985259650381e+00 -4.6227513132581016e-01 0.0000000000000000e+00  5.7573879509284331e-01 1.2987396153898145e-01 0.0000000000000000e+00  4.3295073890741514e-01 3.1511637144344060e-02 0.0000000000000000e+00  7.8057980943953198e-01 -7.7399035412893408e-03 0.0000000000000000e+00  -1.5549974008464221e-01 3.8583005944984511e-02 0.0000000000000000e+00  9.5776392430092350e-01 -5.0297616383456652e-03 0.0000000000000000e+00  1.4735221240800151e+00 4.6486162349923935e-02 0.0000000000000000e+00  7.3760191494437310e-01 -3.7244685762101652e-02 0.0000000000000000e+00  1.7934138278938512e+00 1.5473628948164950e-01 0.0000000000000000e+00  1.4589063587856002e+00 -1.4480515811843040e-02 0.0000000000000000e+00  1.5768950140863089e+00 5.9295965557749075e-01 0.0000000000000000e+00  1.2866497030005304e+00 -1.6521248841055217e-01 0.0000000000000000e+00  1.3044254783066906e+00 2.0624198088559996e-02 0.0000000000000000e+00  1.3083217788664605e+00 1.2569122678186781e-01 0.0000000000000000e+00  1.3802777387127541e+00 -2.8034687267865708e-02 0.0000000000000000e+00  1.2241926248751402e+00 7.7548050760992207e-02 0.0000000000000000e+00  1.2204837314348855e+00 -3.6592609565250158e-04 0.0000000000000000e+00  1.1073995780889947e+00 4.9349471852448742e-02 0.0000000000000000e+00  1.1901100493761527e+00 -1.2018376429645855e-01 0.0000000000000000e+00  1.2687965071465492e+00 9.8025164261323697e-02 0.0000000000000000e+00  9.7325362618636302e-01 -5.9057999191277827e-02 0.0000000000000000e+00  1.4685339994300286e+00 1.1055080583868167e