<?xml version="1.0"?>
<VTKFile type="UnstructuredGrid"  version="0.1"  >
<UnstructuredGrid>
<Piece  NumberOfPoints="3852" NumberOfCells="7360">
<Points>
<DataArray  type="Float64"  NumberOfComponents="3"  format="ascii">0 0 0  0 0.41 0  2.2 0.41 0  2.2 0 0  0.2 0.15 0  0.15 0.2 0  0.2 0.25 0  0.25 0.2 0  0.2097545161007899 0.1509607359798352 0  0.219134171618224 0.153806023374423 0  0.2277785116509268 0.1584265193848371 0  0.2353553390592504 0.1646446609405956 0  0.2415734806150793 0.1722214883489481 0  0.2461939766255306 0.1808658283816641 0  0.249039264020151 0.1902454838991403 0  0.2490392640201666 0.2097545161007811 0  0.2461939766255869 0.2191341716182 0  0.2415734806151802 0.2277785116509009 0  0.2353553390594108 0.235355339059244 0  0.2277785116510524 0.2415734806150789 0  0.2191341716182962 0.2461939766255471 0  0.209754516100834 0.2490392640201561 0  0.1902454838992189 0.2490392640201666 0  0.1808658283818 0.2461939766255869 0  0.1722214883490991 0.2415734806151802 0  0.164644660940756 0.2353553390594108 0  0.1584265193849211 0.2277785116510524 0  0.1538060233744529 0.2191341716182962 0  0.150960735979844 0.209754516100834 0  0.1509607359798352 0.1902454838992101 0  0.153806023374423 0.180865828381776 0  0.1584265193848371 0.1722214883490732 0  0.1646446609405956 0.1646446609407496 0  0.1722214883489481 0.1584265193849207 0  0.1808658283816641 0.1538060233744694 0  0.1902454838991403 0.150960735979849 0  0.09999999999980318 0 0  0.1999999999996354 0 0  0.2999999999994593 0 0  0.3999999999991452 0 0  0.4999999999988309 0 0  0.599999999998495 0 0  0.6999999999982023 0 0  0.7999999999979096 0 0  0.8999999999975735 0 0  0.9999999999972848 0 0  1.099999999997053 0 0  1.199999999997309 0 0  1.299999999997566 0 0  1.399999999997821 0 0  1.49999999999809 0 0  1.599999999998377 0 0  1.69999999999859 0 0  1.799999999998877 0 0  1.899999999999145 0 0  1.999999999999386 0 0  2.099999999999693 0 0  2.2 0.08199999999981657 0  2.2 0.1639999999995688 0  2.2 0.2459999999995603 0  2.2 0.327999999999785 0  2.100000000000048 0.41 0  2.000000000000269 0.41 0  1.900000000000422 0.41 0  1.800000000000679 0.41 0  1.700000000000931 0.41 0  1.600000000001326 0.41 0  1.500000000001665 0.41 0  1.400000000002032 0.41 0  1.300000000002395 0.41 0  1.200000000002644 0.41 0  1.100000000002865 0.41 0  1.000000000002617 0.41 0  0.900000000002368 0.41 0  0.8000000000021192 0.41 0  0.7000000000018587 0.41 0  0.6000000000015786 0.41 0  0.5000000000013736 0.41 0  0.4000000000010933 0.41 0  0.3000000000008329 0.41 0  0.2000000000005997 0.41 0  0.1000000000003003 0.41 0  0 0.3280000000001975 0  0 0.2460000000004372 0  0 0.1640000000004437 0  0 0.08200000000021695 0  0.439039350479032 0.2235433210862024 0  0.3557293424662716 0.1539377961885917 0  0.3450132387946972 0.2399891502764809 0  0.2900756359792848 0.08507884665974728 0  0.2884413411145515 0.3059878288466324 0  0.2102195502178943 0.3385267178242456 0  0.137328909169326 0.3152847369018352 0  0.08490385663776813 0.2628976192695439 0  0.08063302347471875 0.188368977740952 0  0.1005937615311739 0.1162460982751979 0  0.1621860847198582 0.08598327887900903 0  0.3012864586130264 0.1926027915888804 0  1.999140000000448 0.2049999999995642 0  0.2742354912953259 0.1572259708446958 0  0.2871471664627305 0.2264358039321654 0  0.6542851578645765 0.1981889790488746 0  0.2651366296338276 0.2534562504463119 0  0.2371819217149928 0.0977949043027586 0  1.651678197071202 0.2145186615851206 0  1.349674714201118 0.2086119645070391 0  0.9627539291831038 0.2056711800839285 0  0.2360880502985623 0.2733043913425156 0  1.159884231859056 0.2050429640239795 0  0.2502927927237266 0.1358797630898622 0  0.2080582834123368 0.2835355213895352 0  0.1805439632603489 0.278338480667804 0  0.1486243506827335 0.2626014098227327 0  0.1266658889266303 0.2392753516137401 0  0.1179814841582247 0.2069380844236527 0  0.1225167704961566 0.1764957192948648 0  0.1357996569043286 0.1472158045151807 0  0.1619764829264572 0.126298308975886 0  0.1935640279204225 0.116654032325456 0  1.82457000000085 0.2346439024393236 0  0.8027657238591595 0.149277802568535 0  1.498563450727992 0.2632867809910664 0  0.2770405925201826 0.1924926016722167 0  0.470924801584011 0.09138612536042019 0  0.550693598792917 0.2898604497866635 0  0.381089831438127 0.3238078833671811 0  2.074516462495042 0.125705772324225 0  2.083599037046577 0.2769549245607841 0  0.2692296340100125 0.2210592970306522 0  0.7614733075682367 0.2839235561638241 0  1.536698221979284 0.1258192462655419 0  1.231809489345021 0.1282542717942667 0  1.054759157670174 0.1242749934189342 0  1.754535566851005 0.1223197024158991 0  1.90452621597739 0.1324728094649104 0  0.2672409321155211 0.178737994598723 0  1.254401531996246 0.2902808614622134 0  1.04350934597445 0.2986664252663559 0  0.0749710792305778 0.3208721925318313 0  0.5425289614095572 0.165152457827861 0  0.1663208394680799 0.2644065126118989 0  0.1471335176887868 0.2433864007787126 0  0.1345556779484054 0.219852318055334 0  0.131940483167677 0.1932967226753857 0  0.1941574795820069 0.2685534232066453 0  0.2226696214021025 0.1252682734732412 0  0.2193882214552426 0.2661718674478616 0  0.1396865053227576 0.1677617654469802 0  0.8749487631478475 0.295170577255529 0  1.424301820545763 0.1157348858866879 0  1.918515045506933 0.2902236143624367 0  1.744876807925144 0.306628844405037 0  0.2443979144126529 0.254353837216211 0  0.2569054246570621 0.2306780201523878 0  0.2632507216716993 0.2062296523407826 0  0.4609453431326088 0.3138128990490959 0  0.3578015395476809 0.08253318517696946 0  0.2529777826635333 0.155582948480283 0  0.1580369715200277 0.1487041474358234 0  0.652872088668587 0.3101079993636056 0  0.297147332491062 0.2558065812325378 0  0.6188247313471635 0.1101603945467571 0  0.8951149554961688 0.1123812542864208 0  1.592749166085722 0.2985190085719691 0  1.40420309431358 0.2992155383468256 0  1.649189110727275 0.1000387439201274 0  0.2301663900864273 0.1432830242131801 0  0.2064839406544439 0.1345771465164309 0  0.2548204572493643 0.1702022465417566 0  0.1606700828011604 0.2481621709908606 0  0.2605987457303776 0.1928909671966518 0  0.1826942838524941 0.2594610608897559 0  0.1456438338561037 0.2290651013631561 0  0.1387681034994896 0.2058679665896095 0  1.140902260384949 0.3081952438204152 0  2.123402621966431 0.2039515281261525 0  0.7272188829630218 0.1047469619375249 0  0.2060868819369127 0.2616331638469837 0  0.246763614216289 0.2411610007697902 0  0.1405961691450822 0.1819800466423126 0  1.149638048863541 0.08264492713269313 0  0.1809997740285721 0.1365020267363126 0  1.993198408221569 0.09755938404998035 0  0.2287111352430851 0.2547015941619741 0  0.3818716699056283 0.2060398770290832 0  0.39147508084147 0.2656155699545688 0  0.151201080877373 0.1608659990301362 0  0.0542521118046473 0.1382221876243976 0  0.06190301158313444 0.0685934933767465 0  1.317316039400266 0.1015983144534349 0  0.2176417279723976 0.1415790407114221 0  0.2401571300978209 0.1529210337009423 0  0.2618092962776011 0.3566662607419938 0  0.1941527094396574 0.1377969918002053 0  0.9590486261329707 0.3255353063371385 0  0.1708201090411339 0.1447474051814825 0  1.837592370686806 0.3302992722413595 0  0.3197015570210796 0.1212159119695666 0  0.4155281956943757 0.1409543952531078 0  0.0549491513262805 0.2307535706287103 0  0.1668210562270142 0.3605647861782867 0  0.2854688902460447 0.2093700809023571 0  2.013251581901814 0.3292746985146142 0  0.1192191106244758 0.2809901915857802 0  0.2487958366614321 0.04556523514103697 0  0.09061021186838321 0.2240174335271237 0  1.737143840576958 0.20912817770623 0  0.04515017012776967 0.2784708690411318 0  0.5347554646753627 0.08988970780599832 0  0.977104673723579 0.08241628541188413 0  0.336509991617897 0.2888965225844298 0  0.2569238041969055 0.2173711314485607 0  1.906541186051535 0.2125389476829634 0  0.1762338839607841 0.3102437166134606 0  1.449268841077636 0.201011295143529 0  0.8555371485878378 0.2099663446585434 0  1.837208236203613 0.07556229833764837 0  1.264402545318887 0.1992523923163096 0  1.068181074047183 0.2155119107017876 0  0.3158931250274742 0.3421721218291775 0  0.2731958384900449 0.2373435058667565 0  0.09875906484220501 0.1533097574901186 0  0.7355755433976705 0.2066339904079041 0  1.567440499207928 0.2049999999995983 0  1.329829828222916 0.3295825481537897 0  0.8214190147401245 0.07894167681990104 0  1.525459989258997 0.3394220200696043 0  0.1990897327079506 0.06300531675246424 0  0.244701762210989 0.3062404318132603 0  0.1033853772622983 0.3551443431224104 0  0.1178236825374896 0.07148041782551597 0  0.1558198999929474 0.04409380269139784 0  0.3389178979413869 0.198678920661321 0  0.310790717645908 0.2196004930752872 0  2.125022007676643 0.3402049371791425 0  2.130028889485561 0.06535501282233655 0  0.4821161335597635 0.1626909543876269 0  0.2838678108956019 0.1254276466262967 0  0.5062815929260498 0.2376271077316994 0  1.663059277092996 0.3422301118688678 0  1.82292665764828 0.1574809263836269 0  2.052538557905295 0.05717536030732174 0  0.3078251537889645 0.16056368457456 0  0.8108267070172145 0.3390047366820738 0  1.487254632568403 0.0703866281621833 0  0.155004430757041 0.2369517702015699 0  0.1725545045705267 0.2519594403466565 0  0.1445581653510352 0.2167994984574706 0  0.1420710285613199 0.1942747855116325 0  1.461861739291679 0.3471998553985149 0  0.2372128969196007 0.2453440460936858 0  0.1943665918892754 0.2580518465884657 0  0.2452139232912363 0.1629124725160763 0  0.2555786751481889 0.1825885041235872 0  2.14640473333793 0.2790222779730848 0  2.145589594789407 0.1282024626544199 0  0.1486651579751984 0.1726583296292201 0  0.550000000001476 0.3603327897285098 0  0.0505668771231032 0.3660023622363767 0  1.049999999997169 0.05217028468202135 0  1.244771793631775 0.05744029386223062 0  0.1356759337238615 0.1094447816941579 0  0.5872326411628903 0.2223148728195226 0  0.2168458206248643 0.2558159203714847 0  1.749999999998732 0.05166028789524129 0  0.2855257256666041 0.1763246086558152 0  1.92
[...]
<PointData  Vectors="f_22"> 
<DataArray  type="Float64"  Name="f_22"  NumberOfComponents="3" format="ascii">0.0000000000000000e+00 0.0000000000000000e+00 0.0000000000000000e+00  0.0000000000000000e+00 0.0000000000000000e+00 0.0000000000000000e+00  0.0000000000000000e+00 0.0000000000000000e+00 0.0000000000000000e+00  0.0000000000000000e+00 0.0000000000000000e+00 0.0000000000000000e+00  0.0000000000000000e+00 0.0000000000000000e+00 0.0000000000000000e+00  0.0000000000000000e+00 0.0000000000000000e+00 0.0000000000000000e+00  0.0000000000000000e+00 0.0000000000000000e+00 0.0000000000000000e+00  0.0000000000000000e+00 0.0000000000000000e+00 0.0000000000000000e+00  0.0000000000000000e+00 0.0000000000000000e+00 0.0000000000000000e+00  0.0000000000000000e+00 0.0000000000000000e+00 0.0000000000000000e+00  0.0000000000000000e+00 0.0000000000000000e+00 0.0000000000000000e+00  0.0000000000000000e+00 0.0000000000000000e+00 0.0000000000000000e+00  0.0000000000000000e+00 0.0000000000000000e+00 0.0000000000000000e+00  0.0000000000000000e+00 0.0000000000000000e+00 0.0000000000000000e+00  0.0000000000000000e+00 0.0000000000000000e+00 0.0000000000000000e+00  0.0000000000000000e+00 0.0000000000000000e+00 0.0000000000000000e+00  0.0000000000000000e+00 0.0000000000000000e+00 0.0000000000000000e+00  0.0000000000000000e+00 0.0000000000000000e+00 0.0000000000000000e+00  0.0000000000000000e+00 0.0000000000000000e+00 0.0000000000000000e+00  0.0000000000000000e+00 0.0000000000000000e+00 0.0000000000000000e+00  0.0000000000000000e+00 0.0000000000000000e+00 0.0000000000000000e+00  0.0000000000000000e+00 0.0000000000000000e+00 0.0000000000000000e+00  0.0000000000000000e+00 0.0000000000000000e+00 0.0000000000000000e+00  0.0000000000000000e+00 0.0000000000000000e+00 0.0000000000000000e+00  0.0000000000000000e+00 0.0000000000000000e+00 0.0000000000000000e+00  0.0000000000000000e+00 0.0000000000000000e+00 0.0000000000000000e+00  0.0000000000000000e+00 0.0000000000000000e+00 0.0000000000000000e+00  0.0000000000000000e+00 0.0000000000000000e+00 0.0000000000000000e+00  0.0000000000000000e+00 0.0000000000000000e+00 0.0000000000000000e+00  0.0000000000000000e+00 0.0000000000000000e+00 0.0000000000000000e+00  0.0000000000000000e+00 0.0000000000000000e+00 0.0000000000000000e+00  0.0000000000000000e+00 0.0000000000000000e+00 0.0000000000000000e+00  0.0000000000000000e+00 0.0000000000000000e+00 0.0000000000000000e+00  0.0000000000000000e+00 0.0000000000000000e+00 0.0000000000000000e+00  0.0000000000000000e+00 0.0000000000000000e+00 0.0000000000000000e+00  0.0000000000000000e+00 0.0000000000000000e+00 0.0000000000000000e+00  0.0000000000000000e+00 0.0000000000000000e+00 0.0000000000000000e+00  0.0000000000000000e+00 0.0000000000000000e+00 0.0000000000000000e+00  0.0000000000000000e+00 0.0000000000000000e+00 0.0000000000000000e+00  0.0000000000000000e+00 0.0000000000000000e+00 0.0000000000000000e+00  0.0000000000000000e+00 0.0000000000000000e+00 0.0000000000000000e+00  0.0000000000000000e+00 0.0000000000000000e+00 0.0000000000000000e+00  0.0000000000000000e+00 0.0000000000000000e+00 0.0000000000000000e+00  0.0000000000000000e+00 0.0000000000000000e+00 0.0000000000000000e+00  0.0000000000000000e+00 0.0000000000000000e+00 0.0000000000000000e+00  0.0000000000000000e+00 0.0000000000000000e+00 0.0000000000000000e+00  0.0000000000000000e+00 0.0000000000000000e+00 0.0000000000000000e+00  0.0000000000000000e+00 0.0000000000000000e+00 0.0000000000000000e+00  0.0000000000000000e+00 0.0000000000000000e+00 0.0000000000000000e+00  0.0000000000000000e+00 0.0000000000000000e+00 0.0000000000000000e+00  0.0000000000000000e+00 0.0000000000000000e+00 0.0000000000000000e+00  0.0000000000000000e+00 0.0000000000000000e+00 0.0000000000000000e+00  0.0000000000000000e+00 0.0000000000000000e+00 0.0000000000000000e+00  0.0000000000000000e+00 0.0000000000000000e+00 0.0000000000000000e+00  0.0000000000000000e+00 0.0000000000000000e+00 0.0000000000000000e+00  0.0000000000000000e+00 0.0000000000000000e+00 0.0000000000000000e+00  0.0000000000000000e+00 0.0000000000000000e+00 0.0000000000000000e+00  1.0829882672334001e+00 5.1666698798027962e-03 0.0000000000000000e+00  1.4852798208791322e+00 8.4821088414434850e-02 0.0000000000000000e+00  1.2290822608047647e+00 1.1766497359494338e-01 0.0000000000000000e+00  9.4774965896158858e-01 3.8205718647246492e-02 0.0000000000000000e+00  0.0000000000000000e+00 0.0000000000000000e+00 0.0000000000000000e+00  0.0000000000000000e+00 0.0000000000000000e+00 0.0000000000000000e+00  0.0000000000000000e+00 0.0000000000000000e+00 0.0000000000000000e+00  0.0000000000000000e+00 0.0000000000000000e+00 0.0000000000000000e+00  0.0000000000000000e+00 0.0000000000000000e+00 0.0000000000000000e+00  0.0000000000000000e+00 0.0000000000000000e+00 0.0000000000000000e+00  0.0000000000000000e+00 0.0000000000000000e+00 0.0000000000000000e+00  0.0000000000000000e+00 0.0000000000000000e+00 0.0000000000000000e+00  0.0000000000000000e+00 0.0000000000000000e+00 0.0000000000000000e+00  0.0000000000000000e+00 0.0000000000000000e+00 0.0000000000000000e+00  0.0000000000000000e+00 0.0000000000000000e+00 0.0000000000000000e+00  0.0000000000000000e+00 0.0000000000000000e+00 0.0000000000000000e+00  0.0000000000000000e+00 0.0000000000000000e+00 0.0000000000000000e+00  0.0000000000000000e+00 0.0000000000000000e+00 0.0000000000000000e+00  0.0000000000000000e+00 0.0000000000000000e+00 0.0000000000000000e+00  0.0000000000000000e+00 0.0000000000000000e+00 0.0000000000000000e+00  0.0000000000000000e+00 0.0000000000000000e+00 0.0000000000000000e+00  0.0000000000000000e+00 0.0000000000000000e+00 0.0000000000000000e+00  0.0000000000000000e+00 0.0000000000000000e+00 0.0000000000000000e+00  0.0000000000000000e+00 0.0000000000000000e+00 0.0000000000000000e+00  0.0000000000000000e+00 0.0000000000000000e+00 0.0000000000000000e+00  9.6000005061243410e-01 0.0000000000000000e+00 0.0000000000000000e+00  1.4400000759199731e+00 0.0000000000000000e+00 0.0000000000000000e+00  1.4400000759225515e+00 0.0000000000000000e+00 0.0000000000000000e+00  9.6000005061607341e-01 0.0000000000000000e+00 0.0000000000000000e+00  -4.5580159491498344e-02 -4.7439517387607782e-01 0.0000000000000000e+00  4.7702616113609414e-01 -2.6773472552536709e-01 0.0000000000000000e+00  5.9547754687937604e-01 -4.4089866766014191e-01 0.0000000000000000e+00  1.8032287273570844e+00 -5.0938862875481709e-02 0.0000000000000000e+00  1.9331900418256174e+00 -7.6153031555454373e-02 0.0000000000000000e+00  1.4621679125439837e+00 1.7003365479487453e-01 0.0000000000000000e+00  1.3335292130028091e+00 3.5191771669684663e-01 0.0000000000000000e+00  1.3413605127141126e+00 2.8064586972732608e-01 0.0000000000000000e+00  1.3056599496962229e+00 -4.2605601059434998e-02 0.0000000000000000e+00  1.2537597006156163e+00 -3.0132854076817717e-01 0.0000000000000000e+00  1.3865946215023663e+00 -3.6062398411485169e-01 0.0000000000000000e+00  -3.1441351487386171e-01 2.9675771468834634e-02 0.0000000000000000e+00  1.6224030197882837e+00 -3.0704604500656529e-01 0.0000000000000000e+00  -1.5653582542675380e-02 5.2375173087442339e-03 0.0000000000000000e+00  -1.0416206498116294e-02 2.2011728165190797e-01 0.0000000000000000e+00  1.3377459105541056e+00 -6.3269314664083631e-01 0.0000000000000000e+00  4.7078475265331732e-01 8.1388688201699019e-02 0.0000000000000000e+00  1.8554868837200311e+00 -2.2249550435388149e-01 0.0000000000000000e+00  1.3472625053475824e+00 5.5509142713323148e-02 0.0000000000000000e+00  1.4356103113412548e+00 3.7658389646619705e-01 0.0000000000000000e+00  1.4373708817515365e+00 3.4022629064777266e-01 0.0000000000000000e+00  1.9073775570365716e+00 1.4892389786316804e-01 0.0000000000000000e+00  1.3828421659691932e+00 -3.4602711001561404e-01 0.0000000000000000e+00  9.1584285030205403e-01 -3.3642824229078876e-02 0.0000000000000000e+00  2.0600985625598165e+00 3.8857316872332570e-01 0.0000000000000000e+00  1.9209390629873875e+00 6.3018202288038039e-01 0.0000000000000000e+00  1.5315598877031646e+00 7.9551949718061687e-01 0.0000000000000000e+00  1.1675017906482188e+00 5.9631382628682283e-01 0.0000000000000000e+00  9.4443997607126506e-01 1.4610488533681174e-01 0.0000000000000000e+00  9.7725507921186960e-01 -3.5952402073946860e-01 0.0000000000000000e+00  1.2742636680569694e+00 -6.6959587236213547e-01 0.0000000000000000e+00  1.6275051548738819e+00 -6.9893413168468921e-01 0.0000000000000000e+00  1.8849702699387028e+00 -5.1595427216335399e-01 0.0000000000000000e+00  1.6414153232550042e+00 2.3137710748036400e-01 0.0000000000000000e+00  1.5135888023912831e+00 -1.2023093292104778e-01 0.0000000000000000e+00  1.4484855483248211e+00 -3.3097296639513263e-01 0.0000000000000000e+00  -1.6377698202174237e-01 1.1389114788224254e-01 0.0000000000000000e+00  1.5846089555039744e+00 4.6779364535272627e-01 0.0000000000000000e+00  1.5443430241088416e+00 1.8002099402527186e-01 0.0000000000000000e+00  1.4682813176914240e+00 -2.1489292389017706e-01 0.0000000000000000e+00  1.3575348705172545e+00 -1.3566602900860847e-01 0.0000000000000000e+00  1.1230155624302876e+00 7.9121401012517299e-04 0.0000000000000000e+00  -6.7525263652965933e-02 2.7299932484020978e-01 0.0000000000000000e+00  1.0160070229851572e+00 -1.4967991985737497e-01 0.0000000000000000e+00  1.2812198299721549e+00 -4.7062324854750381e-01 0.0000000000000000e+00  1.5141627973531990e+00 2.7584456316650469e-01 0.0000000000000000e+00  8.3112671580549891e-01 -3.3595038271492983e-01 0.0000000000000000e+00  1.2203411962132538e+00 1.5449512624691353e-01 0.0000000000000000e+00  1.1422345704819370e+00 -3.9909562310021109e-02 0.0000000000000000e+00  -9.1924210492584771e-02 4.2129188684225945e-02 0.0000000000000000e+00  1.0479834653368394e+00 2.7555351179291487e-01 0.0000000000000000e+00  1.4523335251935745e+00 -2.5590209572395256e-01 0.0000000000000000e+00  1.0840096712601583e+00 1.7966787216501257e-01 0.0000000000000000e+00  1.2814612439770863e+00 6.7418775391112329e-01 0.0000000000000000e+00  1.7981866294747171e+00 8.7020528895396676e-01 0.0000000000000000e+00  1.2691751563900848e+00 9.8061765965860448e-01 0.0000000000000000e+00  7.7489806224439095e-01 5.5782835724970103e-01 0.0000000000000000e+00  6.4326697931579824e-01 -1.5090295176187082e-01 0.0000000000000000e+00  2.1038230573176162e+00 5.7877260907730910e-01 0.0000000000000000e+00  1.9043855652059998e+00 -2.9057740728645493e-01 0.0000000000000000e+00  1.6655484423612319e+00 1.8149772194976468e-01 0.0000000000000000e+00  9.4965989582593580e-01 -7.6120369381120911e-01 0.0000000000000000e+00  7.9119362588608044e-01 4.6163244430707434e-01 0.0000000000000000e+00  9.7526155313142493e-01 1.1305968734775181e-01 0.0000000000000000e+00  1.4598224478114687e+00 -1.6478572038683148e-01 0.0000000000000000e+00  1.0631882080186665e+00 1.7546836632226515e-01 0.0000000000000000e+00  3.8674295400794884e-01 3.7522720783072609e-02 0.0000000000000000e+00  -5.2882476925955199e-02 2.4163714059045427e-01 0.0000000000000000e+00  -7.2513850493873599e-02 2.4006996265341921e-01 0.0000000000000000e+00  1.3661292835092038e+00 4.9601715227301918e-02 0.0000000000000000e+00  1.8238574822104872e+00 1.0151347713795737e-01 0.0000000000000000e+00  -1.6958143106102715e-02 -1.1790893008484474e-02 0.0000000000000000e+00  1.4884033478313172e+00 -1.0170033861819208e+00 0.0000000000000000e+00  1.5235400906064176e+00 -3.9952012509265927e-01 0.0000000000000000e+00  8.7676239661062949e-01 -2.1235904122302758e-02 0.0000000000000000e+00  7.7697557778570447e-01 -1.2109231375228945e-02 0.0000000000000000e+00  1.1275783606089769e+00 1.8005162961228946e-01 0.0000000000000000e+00  1.0792267376446854e+00 -1.1037991188178031e-01 0.0000000000000000e+00  1.4705484479590767e+00 -1.5225567541856525e-01 0.0000000000000000e+00  1.3518759673083720e+00 2.2432665556976783e-01 0.0000000000000000e+00  4.4097084219609589e-01 -2.6502072645095343e-02 0.0000000000000000e+00  1.6950927690784552e+00 -3.3462158598033231e-01 0.0000000000000000e+00  -5.1431439480636137e-02 9.4615823064618260e-03 0.0000000000000000e+00  1.5609392147422234e+00 1.1485744621381042e+00 0.0000000000000000e+00  -4.1517059137826058e-02 1.4985583801533864e-01 0.0000000000000000e+00  1.9704185653515709e+00 7.8209580050649752e-01 0.0000000000000000e+00  8.6758664574646827e-01 9.6891580380355191e-01 0.0000000000000000e+00  4.3563688120379235e-01 2.4840646693748347e-01 0.0000000000000000e+00  9.9067646665949993e-01 -2.5968588470297210e-01 0.0000000000000000e+00  1.5406215744589300e+00 -6.3544160596570934e-02 0.0000000000000000e+00  1.0401094954789583e+00 -2.8125852813718488e-01 0.0000000000000000e+00  1.5340146590846635e+00 2.3996277185840714e-01 0.0000000000000000e+00  -3.6218565200654182e-02 1.2188228018756013e-01 0.0000000000000000e+00  5.8431688962972428e-01 -5.8520283146551644e-01 0.0000000000000000e+00  1.2162159522261540e+00 -9.7222785148281518e-02 0.0000000000000000e+00  1.9162896487898378e+00 -7.8620778056130214e-01 0.0000000000000000e+00  1.0203880802542769e+00 -6.5597927171378842e-02 0.0000000000000000e+00  3.9263238167483760e-01 1.3488388976711925e-02 0.0000000000000000e+00  -3.9367315380501172e-01 -8.2768917370979489e-01 0.0000000000000000e+00  1.3374158277152217e+00 -5.6767239317555873e-01 0.0000000000000000e+00  1.1421407101389314e+00 -1.0545154641934611e+00 0.0000000000000000e+00  1.3168765994461178e+00 -1.1719778442369438e-01 0.0000000000000000e+00  8.7911120797769982e-01 -1.0098339627159963e-01 0.0000000000000000e+00  1.0730990166652072e+00 1.9751457629624194e-01 0.0000000000000000e+00  7.1269247224814047e-01 -5.5044473732217727e-02 0.0000000000000000e+00  1.1556134259389310e-02 -3.2133072406423359e-02 0.0000000000000000e+00  1.3440282426854511e+00 7.2566668377768697e-03 0.0000000000000000e+00  1.7735999845416017e+00 -5.0645854242632182e-01 0.0000000000000000e+00  1.2758067043529204e+00 4.6893851783642936e-02 0.0000000000000000e+00  1.7447844342269154e+00 -9.8137784881591661e-01 0.0000000000000000e+00  1.0461778981386975e+00 7.8615762810457637e-02 0.0000000000000000e+00  1.5656044665378004e+00 2.5905114604527165e-03 0.0000000000000000e+00  1.5584797810294742e+00 2.0660736318663372e-01 0.0000000000000000e+00  1.4167793433391902e+00 1.0688540388211980e-01 0.0000000000000000e+00  1.0366916909484221e+00 1.4896886850607771e-01 0.0000000000000000e+00  -1.7912703175171066e-01 1.9315397350670807e-01 0.0000000000000000e+00  8.9330442486477069e-01 -2.9466184899031297e-02 0.0000000000000000e+00  1.3831041114105178e+00 4.5222930242570131e-01 0.0000000000000000e+00  1.2952881218262777e+00 -6.8546680065370930e-02 0.0000000000000000e+00  1.2773676443506892e+00 1.9651485931237950e-01 0.0000000000000000e+00  1.6617721691675851e+00 3.5626705645162410e-01 0.0000000000000000e+00  1.3063548538019565e+00 1.2694913344515821e-01 0.0000000000000000e+00  1.1595124235786842e+00 2.4147176783877236e-01 0.0000000000000000e+00  6.3886962860738339e-01 1.8789825766052753e-01 0.0000000000000000e+00  1.9330641839634586e+00 -3.6368605604279758e-01 0.0000000000000000e+00  -6.5597195320472160e-02 2.5638877711662961e-01 0.0000000000000000e+00  1.5302633865954134e+00 -9.9175570294439047e-02 0.0000000000000000e+00  1.6061958843086519e+00 3.8536420675058308e-01 0.0000000000000000e+00  1.5652753502272345e+00 -2.0128792363761799e-01 0.0000000000000000e+00  1.5840739027874486e+00 4.0156059769728980e-01 0.0000000000000000e+00  7.8123795876539159e-01 1.0807303515756168e-02 0.0000000000000000e+00  1.5858248356675675e+00 3.9318589092207751e-01 0.0000000000000000e+00  1.6840469901826169e+00 -4.3123907111628129e-01 0.0000000000000000e+00  1.4971394693535296e+00 -1.1648285232846770e-01 0.0000000000000000e+00  1.0013477262294748e-01 2.1783547989151289e-01 0.0000000000000000e+00  1.2619719834412542e+00 -2.8852108406747323e-01 0.0000000000000000e+00  1.4592928266223557e+00 -5.8020855592189302e-01 0.0000000000000000e+00  1.4028833141986887e+00 -2.9155475223802474e-01 0.0000000000000000e+00  9.6050915464900533e-01 3.3171889593870596e-01 0.0000000000000000e+00  1.2127081175842127e+00 1.4015564704574951e-01 0.0000000000000000e+00  8.3646162491092046e-01 -9.4217759774861715e-02 0.0000000000000000e+00  1.3421670349251913e+00 -2.0699956129925781e-01 0.0000000000000000e+00  1.9102464435948872e+00 1.2332576197114867e-01 0.0000000000000000e+00  8.5368916378391568e-01 1.4256530085443725e-01 0.0000000000000000e+00  1.0458198226113766e+00 -2.2316391153776866e-01 0.0000000000000000e+00  9.2836224107810594e-01 -1.4795842218672062e-01 0.0000000000000000e+00  -4.7493204426599556e-01 -3.1609445401276476e-01 0.0000000000000000e+00  -1.2961606649579016e-01 7.2301904818113438e-02 0.0000000000000000e+00  8.2001401775649596e-01 3.0850661804208587e-02 0.0000000000000000e+00  9.1127749429427074e-01 -3.7325764965209195e-02 0.0000000000000000e+00  1.6005615404330129e+00 9.2167087150706606e-01 0.0000000000000000e+00  1.4457071529642032e+00 -1.2297734454896446e-02 0.0000000000000000e+00  6.0483164113303678e-01 5.7870095145254763e-01 0.0000000000000000e+00  6.4310378256088363e-01 -3.7851425207332742e-02 0.0000000000000000e+00  1.2761296092571011e+00 8.8072243967588629e-02 0.0000000000000000e+00  7.2758493899475163e-01 -5.2202235836055655e-02 0.0000000000000000e+00  6.5392517735915982e-03 -7.4028733719460185e-02 0.0000000000000000e+00  6.5870633169591275e-01 -1.3610135584766377e-02 0.0000000000000000e+00  5.9436192168436741e-01 -2.3193259326776319e-01 0.0000000000000000e+00  1.1303665280797819e+00 1.1770096740511342e+00 0.0000000000000000e+00  1.7312585725911351e+00 9.8697099801135968e-01 0.0000000000000000e+00  4.6633293923795066e-01 6.9960203202121218e-01 0.0000000000000000e+00  3.0147652535052816e-01 -2.0187841725781910e-01 0.0000000000000000e+00  8.8985725313483310e-01 -1.0136215627333114e-01 0.0000000000000000e+00  -1.5173865276486967e-02 5.4966486565220594e-02 0.0000000000000000e+00  1.5204516816041715e+00 3.7798969186369119e-01 0.0000000000000000e+00  -5.0389204326241152e-02 -2.5795528856097281e-02 0.0000000000000000e+00  -1.5117497199065941e-02 7.2418964695731253e-02 0.0000000000000000e+00  1.0842954119301118e+00 8.7537755630596112e-02 0.0000000000000000e+00  1.3965846739945720e+00 -1.0316809086056135e-01 0.0000000000000000e+00  7.2673940068875020e-01 -9.4995893210955862e-01 0.0000000000000000e+00  1.0836950938101171e+00 -3.6908303877582316e-02 0.0000000000000000e+00  6.1369836418691770e-01 5.5879807729719760e-02 0.0000000000000000e+00  5.4495850283679093e-01 -9.5536413771192277e-02 0.0000000000000000e+00  8.6265521929403366e-01 7.3542731544942827e-02 0.0000000000000000e+00  1.3638379256304944e+00 -4.4962177364559147e-01 0.0000000000000000e+00  1.0341174145326379e+00 7.0871950432818920e-01 0.0000000000000000e+00  5.6093232834456253e-01 1.6704771046211660e-02 0.0000000000000000e+00  5.9013441380028142e-01 5.5653425197332830e-02 0.0000000000000000e+00  -1.6398491281223374e-01 8.7066529998002535e-03 0.0000000000000000e+00  6.9383976563150995e-01 -2.1995082767684169e-02 0.0000000000000000e+00  1.3672798888895570e+00 2.4324722751292399e-01 0.0000000000000000e+00  8.9163697881161119e-01 -1.0533460240181231e-01 0.0000000000000000e+00  1.9932051367625141e+00 3.9865509730087886e-02 0.0000000000000000e+00  1.4589257876252100e+00 1.8937476094563431e-03 0.0000000000000000e+00  1.6087947302999512e+00 5.8650925466191195e-01 0.0000000000000000e+00  7.5188467795283798e-01 2.2430941531136929e-02 0.0000000000000000e+00  1.5921386091809691e+00 3.8953053013736100e-01 0.0000000000000000e+00  1.5229582545664853e+00 2.6883557696707433e-01 0.0000000000000000e+00  1.5527819638009821e+00 2.3887833680043752e-01 0.0000000000000000e+00  1.5154309382951534e+00 2.8868367907639114e-01 0.0000000000000000e+00  1.2664626617309760e+00 2.3090288308958037e-01 0.0000000000000000e+00  1.4296512426922494e+00 1.0276206210150811e-01 0.0000000000000000e+00  1.3677511910044069e+00 -3.6965938553442051e-01 0.0000000000000000e+00  1.4680410719902659e+00 -5.5496359395747780e-03 0.0000000000000000e+00  8.3087424291056267e-01 -5.8106415125896416e-01 0.0000000000000000e+00  1.4206389437157012e+00 -8.39895200430805