<?xml version="1.0"?>
<VTKFile type="UnstructuredGrid"  version="0.1"  >
<UnstructuredGrid>
<Piece  NumberOfPoints="3852" NumberOfCells="7360">
<Points>
<DataArray  type="Float64"  NumberOfComponents="3"  format="ascii">0 0 0  0 0.41 0  2.2 0.41 0  2.2 0 0  0.2 0.15 0  0.15 0.2 0  0.2 0.25 0  0.25 0.2 0  0.2097545161007899 0.1509607359798352 0  0.219134171618224 0.153806023374423 0  0.2277785116509268 0.1584265193848371 0  0.2353553390592504 0.1646446609405956 0  0.2415734806150793 0.1722214883489481 0  0.2461939766255306 0.1808658283816641 0  0.249039264020151 0.1902454838991403 0  0.2490392640201666 0.2097545161007811 0  0.2461939766255869 0.2191341716182 0  0.2415734806151802 0.2277785116509009 0  0.2353553390594108 0.235355339059244 0  0.2277785116510524 0.2415734806150789 0  0.2191341716182962 0.2461939766255471 0  0.209754516100834 0.2490392640201561 0  0.1902454838992189 0.2490392640201666 0  0.1808658283818 0.2461939766255869 0  0.1722214883490991 0.2415734806151802 0  0.164644660940756 0.2353553390594108 0  0.1584265193849211 0.2277785116510524 0  0.1538060233744529 0.2191341716182962 0  0.150960735979844 0.209754516100834 0  0.1509607359798352 0.1902454838992101 0  0.153806023374423 0.180865828381776 0  0.1584265193848371 0.1722214883490732 0  0.1646446609405956 0.1646446609407496 0  0.1722214883489481 0.1584265193849207 0  0.1808658283816641 0.1538060233744694 0  0.1902454838991403 0.150960735979849 0  0.09999999999980318 0 0  0.1999999999996354 0 0  0.2999999999994593 0 0  0.3999999999991452 0 0  0.4999999999988309 0 0  0.599999999998495 0 0  0.6999999999982023 0 0  0.7999999999979096 0 0  0.8999999999975735 0 0  0.9999999999972848 0 0  1.099999999997053 0 0  1.199999999997309 0 0  1.299999999997566 0 0  1.399999999997821 0 0  1.49999999999809 0 0  1.599999999998377 0 0  1.69999999999859 0 0  1.799999999998877 0 0  1.899999999999145 0 0  1.999999999999386 0 0  2.099999999999693 0 0  2.2 0.08199999999981657 0  2.2 0.1639999999995688 0  2.2 0.2459999999995603 0  2.2 0.327999999999785 0  2.100000000000048 0.41 0  2.000000000000269 0.41 0  1.900000000000422 0.41 0  1.800000000000679 0.41 0  1.700000000000931 0.41 0  1.600000000001326 0.41 0  1.500000000001665 0.41 0  1.400000000002032 0.41 0  1.300000000002395 0.41 0  1.200000000002644 0.41 0  1.100000000002865 0.41 0  1.000000000002617 0.41 0  0.900000000002368 0.41 0  0.8000000000021192 0.41 0  0.7000000000018587 0.41 0  0.6000000000015786 0.41 0  0.5000000000013736 0.41 0  0.4000000000010933 0.41 0  0.3000000000008329 0.41 0  0.2000000000005997 0.41 0  0.1000000000003003 0.41 0  0 0.3280000000001975 0  0 0.2460000000004372 0  0 0.1640000000004437 0  0 0.08200000000021695 0  0.439039350479032 0.2235433210862024 0  0.3557293424662716 0.1539377961885917 0  0.3450132387946972 0.2399891502764809 0  0.2900756359792848 0.08507884665974728 0  0.2884413411145515 0.3059878288466324 0  0.2102195502178943 0.3385267178242456 0  0.137328909169326 0.3152847369018352 0  0.08490385663776813 0.2628976192695439 0  0.08063302347471875 0.188368977740952 0  0.1005937615311739 0.1162460982751979 0  0.1621860847198582 0.08598327887900903 0  0.3012864586130264 0.1926027915888804 0  1.999140000000448 0.2049999999995642 0  0.2742354912953259 0.1572259708446958 0  0.2871471664627305 0.2264358039321654 0  0.6542851578645765 0.1981889790488746 0  0.2651366296338276 0.2534562504463119 0  0.2371819217149928 0.0977949043027586 0  1.651678197071202 0.2145186615851206 0  1.349674714201118 0.2086119645070391 0  0.9627539291831038 0.2056711800839285 0  0.2360880502985623 0.2733043913425156 0  1.159884231859056 0.2050429640239795 0  0.2502927927237266 0.1358797630898622 0  0.2080582834123368 0.2835355213895352 0  0.1805439632603489 0.278338480667804 0  0.1486243506827335 0.2626014098227327 0  0.1266658889266303 0.2392753516137401 0  0.1179814841582247 0.2069380844236527 0  0.1225167704961566 0.1764957192948648 0  0.1357996569043286 0.1472158045151807 0  0.1619764829264572 0.126298308975886 0  0.1935640279204225 0.116654032325456 0  1.82457000000085 0.2346439024393236 0  0.8027657238591595 0.149277802568535 0  1.498563450727992 0.2632867809910664 0  0.2770405925201826 0.1924926016722167 0  0.470924801584011 0.09138612536042019 0  0.550693598792917 0.2898604497866635 0  0.381089831438127 0.3238078833671811 0  2.074516462495042 0.125705772324225 0  2.083599037046577 0.2769549245607841 0  0.2692296340100125 0.2210592970306522 0  0.7614733075682367 0.2839235561638241 0  1.536698221979284 0.1258192462655419 0  1.231809489345021 0.1282542717942667 0  1.054759157670174 0.1242749934189342 0  1.754535566851005 0.1223197024158991 0  1.90452621597739 0.1324728094649104 0  0.2672409321155211 0.178737994598723 0  1.254401531996246 0.2902808614622134 0  1.04350934597445 0.2986664252663559 0  0.0749710792305778 0.3208721925318313 0  0.5425289614095572 0.165152457827861 0  0.1663208394680799 0.2644065126118989 0  0.1471335176887868 0.2433864007787126 0  0.1345556779484054 0.219852318055334 0  0.131940483167677 0.1932967226753857 0  0.1941574795820069 0.2685534232066453 0  0.2226696214021025 0.1252682734732412 0  0.2193882214552426 0.2661718674478616 0  0.1396865053227576 0.1677617654469802 0  0.8749487631478475 0.295170577255529 0  1.424301820545763 0.1157348858866879 0  1.918515045506933 0.2902236143624367 0  1.744876807925144 0.306628844405037 0  0.2443979144126529 0.254353837216211 0  0.2569054246570621 0.2306780201523878 0  0.2632507216716993 0.2062296523407826 0  0.4609453431326088 0.3138128990490959 0  0.3578015395476809 0.08253318517696946 0  0.2529777826635333 0.155582948480283 0  0.1580369715200277 0.1487041474358234 0  0.652872088668587 0.3101079993636056 0  0.297147332491062 0.2558065812325378 0  0.6188247313471635 0.1101603945467571 0  0.8951149554961688 0.1123812542864208 0  1.592749166085722 0.2985190085719691 0  1.40420309431358 0.2992155383468256 0  1.649189110727275 0.1000387439201274 0  0.2301663900864273 0.1432830242131801 0  0.2064839406544439 0.1345771465164309 0  0.2548204572493643 0.1702022465417566 0  0.1606700828011604 0.2481621709908606 0  0.2605987457303776 0.1928909671966518 0  0.1826942838524941 0.2594610608897559 0  0.1456438338561037 0.2290651013631561 0  0.1387681034994896 0.2058679665896095 0  1.140902260384949 0.3081952438204152 0  2.123402621966431 0.2039515281261525 0  0.7272188829630218 0.1047469619375249 0  0.2060868819369127 0.2616331638469837 0  0.246763614216289 0.2411610007697902 0  0.1405961691450822 0.1819800466423126 0  1.149638048863541 0.08264492713269313 0  0.1809997740285721 0.1365020267363126 0  1.993198408221569 0.09755938404998035 0  0.2287111352430851 0.2547015941619741 0  0.3818716699056283 0.2060398770290832 0  0.39147508084147 0.2656155699545688 0  0.151201080877373 0.1608659990301362 0  0.0542521118046473 0.1382221876243976 0  0.06190301158313444 0.0685934933767465 0  1.317316039400266 0.1015983144534349 0  0.2176417279723976 0.1415790407114221 0  0.2401571300978209 0.1529210337009423 0  0.2618092962776011 0.3566662607419938 0  0.1941527094396574 0.1377969918002053 0  0.9590486261329707 0.3255353063371385 0  0.1708201090411339 0.1447474051814825 0  1.837592370686806 0.3302992722413595 0  0.3197015570210796 0.1212159119695666 0  0.4155281956943757 0.1409543952531078 0  0.0549491513262805 0.2307535706287103 0  0.1668210562270142 0.3605647861782867 0  0.2854688902460447 0.2093700809023571 0  2.013251581901814 0.3292746985146142 0  0.1192191106244758 0.2809901915857802 0  0.2487958366614321 0.04556523514103697 0  0.09061021186838321 0.2240174335271237 0  1.737143840576958 0.20912817770623 0  0.04515017012776967 0.2784708690411318 0  0.5347554646753627 0.08988970780599832 0  0.977104673723579 0.08241628541188413 0  0.336509991617897 0.2888965225844298 0  0.2569238041969055 0.2173711314485607 0  1.906541186051535 0.2125389476829634 0  0.1762338839607841 0.3102437166134606 0  1.449268841077636 0.201011295143529 0  0.8555371485878378 0.2099663446585434 0  1.837208236203613 0.07556229833764837 0  1.264402545318887 0.1992523923163096 0  1.068181074047183 0.2155119107017876 0  0.3158931250274742 0.3421721218291775 0  0.2731958384900449 0.2373435058667565 0  0.09875906484220501 0.1533097574901186 0  0.7355755433976705 0.2066339904079041 0  1.567440499207928 0.2049999999995983 0  1.329829828222916 0.3295825481537897 0  0.8214190147401245 0.07894167681990104 0  1.525459989258997 0.3394220200696043 0  0.1990897327079506 0.06300531675246424 0  0.244701762210989 0.3062404318132603 0  0.1033853772622983 0.3551443431224104 0  0.1178236825374896 0.07148041782551597 0  0.1558198999929474 0.04409380269139784 0  0.3389178979413869 0.198678920661321 0  0.310790717645908 0.2196004930752872 0  2.125022007676643 0.3402049371791425 0  2.130028889485561 0.06535501282233655 0  0.4821161335597635 0.1626909543876269 0  0.2838678108956019 0.1254276466262967 0  0.5062815929260498 0.2376271077316994 0  1.663059277092996 0.3422301118688678 0  1.82292665764828 0.1574809263836269 0  2.052538557905295 0.05717536030732174 0  0.3078251537889645 0.16056368457456 0  0.8108267070172145 0.3390047366820738 0  1.487254632568403 0.0703866281621833 0  0.155004430757041 0.2369517702015699 0  0.1725545045705267 0.2519594403466565 0  0.1445581653510352 0.2167994984574706 0  0.1420710285613199 0.1942747855116325 0  1.461861739291679 0.3471998553985149 0  0.2372128969196007 0.2453440460936858 0  0.1943665918892754 0.2580518465884657 0  0.2452139232912363 0.1629124725160763 0  0.2555786751481889 0.1825885041235872 0  2.14640473333793 0.2790222779730848 0  2.145589594789407 0.1282024626544199 0  0.1486651579751984 0.1726583296292201 0  0.550000000001476 0.3603327897285098 0  0.0505668771231032 0.3660023622363767 0  1.049999999997169 0.05217028468202135 0  1.244771793631775 0.05744029386223062 0  0.1356759337238615 0.1094447816941579 0  0.5872326411628903 0.2223148728195226 0  0.2168458206248643 0.2558159203714847 0  1.749999999998732 0.05166028789524129 0  0.2855257256666041 0.1763246086558152 0  1.92
[...]
<PointData  Vectors="f_22"> 
<DataArray  type="Float64"  Name="f_22"  NumberOfComponents="3" format="ascii">0.0000000000000000e+00 0.0000000000000000e+00 0.0000000000000000e+00  0.0000000000000000e+00 0.0000000000000000e+00 0.0000000000000000e+00  0.0000000000000000e+00 0.0000000000000000e+00 0.0000000000000000e+00  0.0000000000000000e+00 0.0000000000000000e+00 0.0000000000000000e+00  0.0000000000000000e+00 0.0000000000000000e+00 0.0000000000000000e+00  0.0000000000000000e+00 0.0000000000000000e+00 0.0000000000000000e+00  0.0000000000000000e+00 0.0000000000000000e+00 0.0000000000000000e+00  0.0000000000000000e+00 0.0000000000000000e+00 0.0000000000000000e+00  0.0000000000000000e+00 0.0000000000000000e+00 0.0000000000000000e+00  0.0000000000000000e+00 0.0000000000000000e+00 0.0000000000000000e+00  0.0000000000000000e+00 0.0000000000000000e+00 0.0000000000000000e+00  0.0000000000000000e+00 0.0000000000000000e+00 0.0000000000000000e+00  0.0000000000000000e+00 0.0000000000000000e+00 0.0000000000000000e+00  0.0000000000000000e+00 0.0000000000000000e+00 0.0000000000000000e+00  0.0000000000000000e+00 0.0000000000000000e+00 0.0000000000000000e+00  0.0000000000000000e+00 0.0000000000000000e+00 0.0000000000000000e+00  0.0000000000000000e+00 0.0000000000000000e+00 0.0000000000000000e+00  0.0000000000000000e+00 0.0000000000000000e+00 0.0000000000000000e+00  0.0000000000000000e+00 0.0000000000000000e+00 0.0000000000000000e+00  0.0000000000000000e+00 0.0000000000000000e+00 0.0000000000000000e+00  0.0000000000000000e+00 0.0000000000000000e+00 0.0000000000000000e+00  0.0000000000000000e+00 0.0000000000000000e+00 0.0000000000000000e+00  0.0000000000000000e+00 0.0000000000000000e+00 0.0000000000000000e+00  0.0000000000000000e+00 0.0000000000000000e+00 0.0000000000000000e+00  0.0000000000000000e+00 0.0000000000000000e+00 0.0000000000000000e+00  0.0000000000000000e+00 0.0000000000000000e+00 0.0000000000000000e+00  0.0000000000000000e+00 0.0000000000000000e+00 0.0000000000000000e+00  0.0000000000000000e+00 0.0000000000000000e+00 0.0000000000000000e+00  0.0000000000000000e+00 0.0000000000000000e+00 0.0000000000000000e+00  0.0000000000000000e+00 0.0000000000000000e+00 0.0000000000000000e+00  0.0000000000000000e+00 0.0000000000000000e+00 0.0000000000000000e+00  0.0000000000000000e+00 0.0000000000000000e+00 0.0000000000000000e+00  0.0000000000000000e+00 0.0000000000000000e+00 0.0000000000000000e+00  0.0000000000000000e+00 0.0000000000000000e+00 0.0000000000000000e+00  0.0000000000000000e+00 0.0000000000000000e+00 0.0000000000000000e+00  0.0000000000000000e+00 0.0000000000000000e+00 0.0000000000000000e+00  0.0000000000000000e+00 0.0000000000000000e+00 0.0000000000000000e+00  0.0000000000000000e+00 0.0000000000000000e+00 0.0000000000000000e+00  0.0000000000000000e+00 0.0000000000000000e+00 0.0000000000000000e+00  0.0000000000000000e+00 0.0000000000000000e+00 0.0000000000000000e+00  0.0000000000000000e+00 0.0000000000000000e+00 0.0000000000000000e+00  0.0000000000000000e+00 0.0000000000000000e+00 0.0000000000000000e+00  0.0000000000000000e+00 0.0000000000000000e+00 0.0000000000000000e+00  0.0000000000000000e+00 0.0000000000000000e+00 0.0000000000000000e+00  0.0000000000000000e+00 0.0000000000000000e+00 0.0000000000000000e+00  0.0000000000000000e+00 0.0000000000000000e+00 0.0000000000000000e+00  0.0000000000000000e+00 0.0000000000000000e+00 0.0000000000000000e+00  0.0000000000000000e+00 0.0000000000000000e+00 0.0000000000000000e+00  0.0000000000000000e+00 0.0000000000000000e+00 0.0000000000000000e+00  0.0000000000000000e+00 0.0000000000000000e+00 0.0000000000000000e+00  0.0000000000000000e+00 0.0000000000000000e+00 0.0000000000000000e+00  0.0000000000000000e+00 0.0000000000000000e+00 0.0000000000000000e+00  0.0000000000000000e+00 0.0000000000000000e+00 0.0000000000000000e+00  0.0000000000000000e+00 0.0000000000000000e+00 0.0000000000000000e+00  0.0000000000000000e+00 0.0000000000000000e+00 0.0000000000000000e+00  0.0000000000000000e+00 0.0000000000000000e+00 0.0000000000000000e+00  0.0000000000000000e+00 0.0000000000000000e+00 0.0000000000000000e+00  1.1120765028700716e+00 -9.0756660279140550e-05 0.0000000000000000e+00  1.2352178333183175e+00 -7.8405625240724475e-05 0.0000000000000000e+00  1.2351863927848428e+00 6.1552764007648348e-05 0.0000000000000000e+00  1.1123078410132217e+00 5.9872229594482131e-05 0.0000000000000000e+00  0.0000000000000000e+00 0.0000000000000000e+00 0.0000000000000000e+00  0.0000000000000000e+00 0.0000000000000000e+00 0.0000000000000000e+00  0.0000000000000000e+00 0.0000000000000000e+00 0.0000000000000000e+00  0.0000000000000000e+00 0.0000000000000000e+00 0.0000000000000000e+00  0.0000000000000000e+00 0.0000000000000000e+00 0.0000000000000000e+00  0.0000000000000000e+00 0.0000000000000000e+00 0.0000000000000000e+00  0.0000000000000000e+00 0.0000000000000000e+00 0.0000000000000000e+00  0.0000000000000000e+00 0.0000000000000000e+00 0.0000000000000000e+00  0.0000000000000000e+00 0.0000000000000000e+00 0.0000000000000000e+00  0.0000000000000000e+00 0.0000000000000000e+00 0.0000000000000000e+00  0.0000000000000000e+00 0.0000000000000000e+00 0.0000000000000000e+00  0.0000000000000000e+00 0.0000000000000000e+00 0.0000000000000000e+00  0.0000000000000000e+00 0.0000000000000000e+00 0.0000000000000000e+00  0.0000000000000000e+00 0.0000000000000000e+00 0.0000000000000000e+00  0.0000000000000000e+00 0.0000000000000000e+00 0.0000000000000000e+00  0.0000000000000000e+00 0.0000000000000000e+00 0.0000000000000000e+00  0.0000000000000000e+00 0.0000000000000000e+00 0.0000000000000000e+00  0.0000000000000000e+00 0.0000000000000000e+00 0.0000000000000000e+00  0.0000000000000000e+00 0.0000000000000000e+00 0.0000000000000000e+00  0.0000000000000000e+00 0.0000000000000000e+00 0.0000000000000000e+00  0.0000000000000000e+00 0.0000000000000000e+00 0.0000000000000000e+00  9.6000004997268873e-01 0.0000000000000000e+00 0.0000000000000000e+00  1.4400000749603552e+00 0.0000000000000000e+00 0.0000000000000000e+00  1.4400000749629336e+00 0.0000000000000000e+00 0.0000000000000000e+00  9.6000004997632804e-01 0.0000000000000000e+00 0.0000000000000000e+00  -2.9359284458825585e-01 -3.4103234778986602e-01 0.0000000000000000e+00  2.3096199432024639e-01 -9.2969366569763345e-02 0.0000000000000000e+00  1.2587778326070515e-01 -7.4080466587126900e-03 0.0000000000000000e+00  1.8508019812878715e+00 -9.9556686156814567e-02 0.0000000000000000e+00  1.9694390361024416e+00 9.2517697171299512e-02 0.0000000000000000e+00  1.4709255661012399e+00 2.1856086527213742e-01 0.0000000000000000e+00  1.3210748973529698e+00 3.5846834136189870e-01 0.0000000000000000e+00  1.3340297206181848e+00 2.6769884580620046e-01 0.0000000000000000e+00  1.3052029933907969e+00 -6.3192589301049693e-02 0.0000000000000000e+00  1.2600755788064399e+00 -3.1973824424233116e-01 0.0000000000000000e+00  1.4027768339732174e+00 -3.7786351317307482e-01 0.0000000000000000e+00  -2.3158608719947782e-01 9.0114207561528825e-03 0.0000000000000000e+00  1.2369348400168501e+00 -3.2794933612558967e-04 0.0000000000000000e+00  1.1943724718229548e-02 -5.2272423458278865e-02 0.0000000000000000e+00  -8.6398029660139652e-02 1.2896074390067652e-01 0.0000000000000000e+00  4.2740128360794294e-01 3.1131798184593351e-01 0.0000000000000000e+00  2.7109830969232263e-01 8.3862710615902350e-02 0.0000000000000000e+00  1.8753253341835123e+00 -2.5751047025020568e-01 0.0000000000000000e+00  1.2406552171161800e+00 -2.3901502779979683e-02 0.0000000000000000e+00  1.2298338074571475e+00 -6.4401412643849867e-02 0.0000000000000000e+00  1.4112371240489889e+00 1.3446715807291310e-01 0.0000000000000000e+00  1.7299575691078515e+00 2.1650424336599811e-01 0.0000000000000000e+00  1.2971367498942479e+00 5.3892597854273125e-02 0.0000000000000000e+00  8.5489620430802782e-01 -6.2450800943189104e-02 0.0000000000000000e+00  2.0067719274192837e+00 4.4770394688921339e-01 0.0000000000000000e+00  1.8731654300830767e+00 6.5199686901345044e-01 0.0000000000000000e+00  1.5003790447425445e+00 7.8549086361058607e-01 0.0000000000000000e+00  1.1511561702035287e+00 5.7388943629842004e-01 0.0000000000000000e+00  9.3965244958453442e-01 1.1881507274436112e-01 0.0000000000000000e+00  9.8055584299764553e-01 -3.8592629259411665e-01 0.0000000000000000e+00  1.2824866879601358e+00 -6.9169896955768873e-01 0.0000000000000000e+00  1.6371823389686695e+00 -7.1718455403079939e-01 0.0000000000000000e+00  1.8927295141263214e+00 -5.3618707643150432e-01 0.0000000000000000e+00  1.2372508037289744e+00 -4.9764536846767706e-03 0.0000000000000000e+00  1.1964989178888457e+00 -1.0154017175531833e-01 0.0000000000000000e+00  1.2534964226209644e+00 1.8951783192115223e-02 0.0000000000000000e+00  -1.3224992751821624e-01 1.5931217027937816e-02 0.0000000000000000e+00  1.9228613281379254e+00 3.1257032832577181e-01 0.0000000000000000e+00  1.6783451354504693e+00 -4.6705044861745294e-02 0.0000000000000000e+00  1.7923444510262574e+00 -1.2312974037048420e-01 0.0000000000000000e+00  1.2209027817890479e+00 -1.7298538664402853e-05 0.0000000000000000e+00  1.2264068387849221e+00 3.7328271921885148e-06 0.0000000000000000e+00  -8.3316407428142739e-02 1.4751778337530000e-01 0.0000000000000000e+00  1.5706934124822987e+00 -2.3852852813305894e-01 0.0000000000000000e+00  1.2260296812849847e+00 -8.9315130915349795e-03 0.0000000000000000e+00  1.2662934545155795e+00 -3.5697365799071505e-02 0.0000000000000000e+00  1.3700627208930003e+00 -1.0543439612243505e-01 0.0000000000000000e+00  1.2133654187164926e+00 3.0649853631457559e-04 0.0000000000000000e+00  1.2250497662770532e+00 -8.1980277995686744e-04 0.0000000000000000e+00  -8.1449783168578649e-02 -4.7503080443052223e-02 0.0000000000000000e+00  1.3311644333107202e+00 8.5304513511946747e-02 0.0000000000000000e+00  1.4284646403305297e+00 -4.4171636403214726e-02 0.0000000000000000e+00  1.0802983051212962e+00 1.7548743515640783e-01 0.0000000000000000e+00  1.1221570545580335e+00 5.6419393337137314e-01 0.0000000000000000e+00  1.7524781590605769e+00 8.6816222338099014e-01 0.0000000000000000e+00  1.2413971580780323e+00 9.5706846674829560e-01 0.0000000000000000e+00  7.6317023960533870e-01 5.2770237534259712e-01 0.0000000000000000e+00  6.4352237227533537e-01 -1.8086631821179958e-01 0.0000000000000000e+00  2.0211172442832908e+00 6.0367393040095652e-01 0.0000000000000000e+00  1.8872162921681601e+00 -3.1403578255395370e-01 0.0000000000000000e+00  1.4846228367913090e+00 2.1522942871084932e-01 0.0000000000000000e+00  9.5755805329585675e-01 -7.8611206600632910e-01 0.0000000000000000e+00  1.3076603583022663e+00 9.3576507784124976e-02 0.0000000000000000e+00  1.2921680526771548e+00 -1.8629353184943569e-02 0.0000000000000000e+00  1.2154251075969968e+00 -4.9799164273402381e-04 0.0000000000000000e+00  1.1964510758889149e+00 -5.3212562223755224e-03 0.0000000000000000e+00  2.5420401604962045e-01 5.4999426122591781e-02 0.0000000000000000e+00  -6.5526997448287452e-02 1.5004543735081977e-01 0.0000000000000000e+00  -6.1606833518839797e-02 9.5929912915557858e-02 0.0000000000000000e+00  1.7053803700784280e+00 -1.3958926417512460e-01 0.0000000000000000e+00  1.8895221496733083e+00 9.3079750168133871e-03 0.0000000000000000e+00  -1.2328697639303462e-02 -6.0794904400311836e-02 0.0000000000000000e+00  1.4982970953281922e+00 -1.0346632729763618e+00 0.0000000000000000e+00  1.7053882305759196e+00 -3.1165590942706328e-01 0.0000000000000000e+00  4.6320258912105333e-01 6.7486163743129934e-02 0.0000000000000000e+00  1.4276584427796863e+00 2.0112271707115498e-01 0.0000000000000000e+00  1.5195791764285398e+00 1.9051118597692501e-01 0.0000000000000000e+00  1.2335568024902817e+00 2.8055238119231076e-03 0.0000000000000000e+00  1.2491941077494770e+00 3.4989413636006765e-02 0.0000000000000000e+00  1.1714842204263678e+00 1.8625878587423801e-03 0.0000000000000000e+00  4.0666740511510902e-01 -3.5786382281448460e-02 0.0000000000000000e+00  1.6734942369396804e+00 -3.4490781040871588e-01 0.0000000000000000e+00  -5.8312066937254152e-02 -6.8414505517272711e-02 0.0000000000000000e+00  1.5188667895584789e+00 1.1259280378361050e+00 0.0000000000000000e+00  -4.2533832395343842e-02 1.9003227272415716e-02 0.0000000000000000e+00  1.8882956079379347e+00 7.7617700567714620e-01 0.0000000000000000e+00  8.4740723313406086e-01 9.3749632103143032e-01 0.0000000000000000e+00  4.3078763154141730e-01 2.1554177275158679e-01 0.0000000000000000e+00  1.2626778395483478e+00 -1.5749327116266702e-02 0.0000000000000000e+00  1.2369896759843018e+00 -2.1754752796357225e-05 0.0000000000000000e+00  1.3982061680768680e+00 -5.8601804539974413e-02 0.0000000000000000e+00  1.3822926424430173e+00 2.5044101257234608e-01 0.0000000000000000e+00  -5.5626085144346339e-02 9.8662297492903034e-02 0.0000000000000000e+00  5.9009826843013602e-01 -6.1392549446949940e-01 0.0000000000000000e+00  1.0577562927610735e+00 -6.3993966625580989e-02 0.0000000000000000e+00  1.9197023659140975e+00 -7.9929585154126703e-01 0.0000000000000000e+00  1.1723431378951521e+00 -7.9600812721910397e-05 0.0000000000000000e+00  2.8321253271607211e-01 3.1132302521732710e-02 0.0000000000000000e+00  -4.3597489019331703e-01 -1.9573458724591986e-01 0.0000000000000000e+00  1.1585281065106610e+00 -2.3814936468873565e-01 0.0000000000000000e+00  1.1526665956868023e+00 -1.0755186495540285e+00 0.0000000000000000e+00  1.3184237490148956e+00 -1.3045866890401600e-01 0.0000000000000000e+00  8.8266244020503637e-01 -1.0977812365742652e-01 0.0000000000000000e+00  1.2547757317278525e+00 -3.5241331660402067e-02 0.0000000000000000e+00  6.7991437794026999e-01 -6.1134355686990730e-02 0.0000000000000000e+00  -5.4561449613139490e-04 -4.9584780979017834e-02 0.0000000000000000e+00  1.4150867179186146e+00 7.4493264677490859e-02 0.0000000000000000e+00  1.7620040219669122e+00 -5.1408644977291618e-01 0.0000000000000000e+00  1.0992671660239637e+00 1.5051730544907511e-02 0.0000000000000000e+00  1.7514020813122786e+00 -9.9393175895067343e-01 0.0000000000000000e+00  1.1021998193040319e+00 -9.2148991964102344e-04 0.0000000000000000e+00  1.4778553996176580e+00 -2.3091438596975124e-02 0.0000000000000000e+00  9.0442959846162319e-01 -5.4389432525498466e-02 0.0000000000000000e+00  1.4145445438400681e+00 9.4016933599199784e-02 0.0000000000000000e+00  1.0398780309038029e+00 1.6520753495954177e-01 0.0000000000000000e+00  -1.6135834134342597e-01 8.7954632778382572e-02 0.0000000000000000e+00  1.1065466623641798e+00 5.3170292713839550e-05 0.0000000000000000e+00  1.3676425947933768e+00 4.4508798651248416e-01 0.0000000000000000e+00  1.3448098621964182e+00 -8.9343619780253916e-02 0.0000000000000000e+00  1.2718150299927249e+00 1.7608819370383075e-01 0.0000000000000000e+00  1.2316708586108138e+00 -1.1948370628698558e-02 0.0000000000000000e+00  1.3043468708766459e+00 1.2016558335360689e-01 0.0000000000000000e+00  1.6508055752870179e+00 3.8710798324728346e-01 0.0000000000000000e+00  8.9873872236962127e-01 5.1436566755065551e-03 0.0000000000000000e+00  1.9316199387983146e+00 -6.5221013448203441e-02 0.0000000000000000e+00  -5.1238110055254284e-02 1.3070012478222401e-01 0.0000000000000000e+00  1.2371446383423013e+00 -1.4388114319943621e-03 0.0000000000000000e+00  1.5863400476123155e+00 4.1333355308267822e-01 0.0000000000000000e+00  1.1988696008302604e+00 2.5592462507259436e-02 0.0000000000000000e+00  1.2196944032056263e+00 -1.3874280428769445e-01 0.0000000000000000e+00  1.0756449936120698e+00 -5.8698967635883699e-04 0.0000000000000000e+00  1.3397467272282395e+00 -6.4066253271958168e-02 0.0000000000000000e+00  1.3316513587014243e+00 9.3323917148442070e-02 0.0000000000000000e+00  1.6501641987991256e+00 -5.7322796120964394e-04 0.0000000000000000e+00  -7.0179433601565387e-03 1.4183658203002675e-01 0.0000000000000000e+00  1.2658681135365799e+00 -3.1046950618495023e-01 0.0000000000000000e+00  1.2359471639037680e+00 -3.4498100887055233e-01 0.0000000000000000e+00  1.1960601692254735e+00 2.9738835662927739e-02 0.0000000000000000e+00  1.0367764356812599e+00 8.3965629455297758e-02 0.0000000000000000e+00  1.1202228745522695e+00 8.6129450777018765e-02 0.0000000000000000e+00  1.0233549704490617e+00 6.7233084574100186e-03 0.0000000000000000e+00  1.3702041428594185e+00 -2.2439034814093389e-01 0.0000000000000000e+00  1.9044031706282996e+00 2.2664155212472839e-01 0.0000000000000000e+00  8.5030411768101977e-01 1.4344967685918034e-01 0.0000000000000000e+00  1.0572929486178280e+00 -2.3654457129517253e-01 0.0000000000000000e+00  9.5056410774803346e-01 -1.5734095470644865e-01 0.0000000000000000e+00  -3.5615813587384920e-01 -4.2571559714004066e-02 0.0000000000000000e+00  -1.7890033993369375e-01 7.9943118261686222e-02 0.0000000000000000e+00  1.0387662829495070e+00 5.9404805094454078e-05 0.0000000000000000e+00  1.0047453784622900e+00 -4.1644194147450208e-05 0.0000000000000000e+00  7.7751203321925533e-01 1.2928612914947035e-01 0.0000000000000000e+00  1.3804268335634562e+00 -5.7397683885102524e-02 0.0000000000000000e+00  -2.3881768010178394e-02 -8.9677182339459038e-02 0.0000000000000000e+00  1.0287740805605610e+00 2.2931137733291696e-03 0.0000000000000000e+00  1.2318847676143552e+00 -2.3906727704089974e-03 0.0000000000000000e+00  9.3155191166393747e-01 -2.8798706626921058e-06 0.0000000000000000e+00  9.1557901295333394e-03 -4.1905739657433654e-02 0.0000000000000000e+00  8.2038464568150760e-01 1.2933839178672763e-02 0.0000000000000000e+00  1.0073765001624169e+00 -2.6818980492902694e-02 0.0000000000000000e+00  1.0996180173983234e+00 1.1456826257171819e+00 0.0000000000000000e+00  1.6678848545085589e+00 9.6462024124671508e-01 0.0000000000000000e+00  4.5457789925267011e-01 6.6559533358543899e-01 0.0000000000000000e+00  3.0311475346635214e-01 -2.3362012940690582e-01 0.0000000000000000e+00  9.5684950157229842e-01 7.7971296234328373e-03 0.0000000000000000e+00  -3.6633036204921234e-02 5.7886395511075460e-02 0.0000000000000000e+00  1.4025188712681704e+00 3.7054396905323755e-01 0.0000000000000000e+00  -5.8589944040468099e-02 -6.2974697996631329e-02 0.0000000000000000e+00  -3.1452484598899481e-02 -3.0526355404341485e-02 0.0000000000000000e+00  1.2250956397803860e+00 5.5568943967400537e-05 0.0000000000000000e+00  1.2230165649230584e+00 -4.2630995672173931e-05 0.0000000000000000e+00  7.3644733455024547e-01 -9.7407154819318431e-01 0.0000000000000000e+00  1.1971767893103371e+00 -7.8161479322643224e-02 0.0000000000000000e+00  6.1261741433791106e-01 5.4176857191598420e-02 0.0000000000000000e+00  5.3150721540603174e-01 -4.8888574102938093e-02 0.0000000000000000e+00  7.7505744592001080e-01 -2.8537502773502012e-02 0.0000000000000000e+00  1.3742894667090857e+00 -4.6847412498804070e-01 0.0000000000000000e+00  8.7822365002271766e-02 4.3773332901012918e-01 0.0000000000000000e+00  4.4846645137771263e-01 2.9216805153244124e-02 0.0000000000000000e+00  8.7247711723224075e-01 -8.8912702377222280e-06 0.0000000000000000e+00  -1.2402989918205172e-01 -3.8658742083518723e-02 0.0000000000000000e+00  1.0018091533863358e+00 -1.0660213129854056e-04 0.0000000000000000e+00  1.6225912511541112e+00 1.3905367196674509e-01 0.0000000000000000e+00  9.3250561422728262e-01 -5.9994290486243998e-04 0.0000000000000000e+00  1.8047571278111074e+00 1.5143078017240663e-01 0.0000000000000000e+00  1.4586701666761483e+00 -8.5343218994691876e-03 0.0000000000000000e+00  1.5803451790059939e+00 5.9262571928367025e-01 0.0000000000000000e+00  8.6909257329038769e-01 -1.3091400931410163e-01 0.0000000000000000e+00  1.2120305235853999e+00 -8.5056839159405144e-03 0.0000000000000000e+00  1.2346872771936797e+00 -1.8141120875583738e-02 0.0000000000000000e+00  1.1988772038818178e+00 -8.8373482433887884e-03 0.0000000000000000e+00  1.2249484836450710e+00 -5.3688287864007735e-03 0.0000000000000000e+00  1.1972461164504162e+00 1.5976000871886992e-03 0.0000000000000000e+00  1.2553871799623808e+00 -4.3385174000321540e-02 0.0000000000000000e+00  1.3144054789572426e+00 -4.1092653056183551e-02 0.0000000000000000e+00  1.1827622613430910e+00 7.1051941343547283e-03 0.0000000000000000e+00  1.2045298521701586e+00 -1.1887996203858442e-01 0.0000000000000000e+00  1.4159519739855477e+0