<?xml version="1.0"?>
<VTKFile type="UnstructuredGrid"  version="0.1"  >
<UnstructuredGrid>
<Piece  NumberOfPoints="3852" NumberOfCells="7360">
<Points>
<DataArray  type="Float64"  NumberOfComponents="3"  format="ascii">0 0 0  0 0.41 0  2.2 0.41 0  2.2 0 0  0.2 0.15 0  0.15 0.2 0  0.2 0.25 0  0.25 0.2 0  0.2097545161007899 0.1509607359798352 0  0.219134171618224 0.153806023374423 0  0.2277785116509268 0.1584265193848371 0  0.2353553390592504 0.1646446609405956 0  0.2415734806150793 0.1722214883489481 0  0.2461939766255306 0.1808658283816641 0  0.249039264020151 0.1902454838991403 0  0.2490392640201666 0.2097545161007811 0  0.2461939766255869 0.2191341716182 0  0.2415734806151802 0.2277785116509009 0  0.2353553390594108 0.235355339059244 0  0.2277785116510524 0.2415734806150789 0  0.2191341716182962 0.2461939766255471 0  0.209754516100834 0.2490392640201561 0  0.1902454838992189 0.2490392640201666 0  0.1808658283818 0.2461939766255869 0  0.1722214883490991 0.2415734806151802 0  0.164644660940756 0.2353553390594108 0  0.1584265193849211 0.2277785116510524 0  0.1538060233744529 0.2191341716182962 0  0.150960735979844 0.209754516100834 0  0.1509607359798352 0.1902454838992101 0  0.153806023374423 0.180865828381776 0  0.1584265193848371 0.1722214883490732 0  0.1646446609405956 0.1646446609407496 0  0.1722214883489481 0.1584265193849207 0  0.1808658283816641 0.1538060233744694 0  0.1902454838991403 0.150960735979849 0  0.09999999999980318 0 0  0.1999999999996354 0 0  0.2999999999994593 0 0  0.3999999999991452 0 0  0.4999999999988309 0 0  0.599999999998495 0 0  0.6999999999982023 0 0  0.7999999999979096 0 0  0.8999999999975735 0 0  0.9999999999972848 0 0  1.099999999997053 0 0  1.199999999997309 0 0  1.299999999997566 0 0  1.399999999997821 0 0  1.49999999999809 0 0  1.599999999998377 0 0  1.69999999999859 0 0  1.799999999998877 0 0  1.899999999999145 0 0  1.999999999999386 0 0  2.099999999999693 0 0  2.2 0.08199999999981657 0  2.2 0.1639999999995688 0  2.2 0.2459999999995603 0  2.2 0.327999999999785 0  2.100000000000048 0.41 0  2.000000000000269 0.41 0  1.900000000000422 0.41 0  1.800000000000679 0.41 0  1.700000000000931 0.41 0  1.600000000001326 0.41 0  1.500000000001665 0.41 0  1.400000000002032 0.41 0  1.300000000002395 0.41 0  1.200000000002644 0.41 0  1.100000000002865 0.41 0  1.000000000002617 0.41 0  0.900000000002368 0.41 0  0.8000000000021192 0.41 0  0.7000000000018587 0.41 0  0.6000000000015786 0.41 0  0.5000000000013736 0.41 0  0.4000000000010933 0.41 0  0.3000000000008329 0.41 0  0.2000000000005997 0.41 0  0.1000000000003003 0.41 0  0 0.3280000000001975 0  0 0.2460000000004372 0  0 0.1640000000004437 0  0 0.08200000000021695 0  0.439039350479032 0.2235433210862024 0  0.3557293424662716 0.1539377961885917 0  0.3450132387946972 0.2399891502764809 0  0.2900756359792848 0.08507884665974728 0  0.2884413411145515 0.3059878288466324 0  0.2102195502178943 0.3385267178242456 0  0.137328909169326 0.3152847369018352 0  0.08490385663776813 0.2628976192695439 0  0.08063302347471875 0.188368977740952 0  0.1005937615311739 0.1162460982751979 0  0.1621860847198582 0.08598327887900903 0  0.3012864586130264 0.1926027915888804 0  1.999140000000448 0.2049999999995642 0  0.2742354912953259 0.1572259708446958 0  0.2871471664627305 0.2264358039321654 0  0.6542851578645765 0.1981889790488746 0  0.2651366296338276 0.2534562504463119 0  0.2371819217149928 0.0977949043027586 0  1.651678197071202 0.2145186615851206 0  1.349674714201118 0.2086119645070391 0  0.9627539291831038 0.2056711800839285 0  0.2360880502985623 0.2733043913425156 0  1.159884231859056 0.2050429640239795 0  0.2502927927237266 0.1358797630898622 0  0.2080582834123368 0.2835355213895352 0  0.1805439632603489 0.278338480667804 0  0.1486243506827335 0.2626014098227327 0  0.1266658889266303 0.2392753516137401 0  0.1179814841582247 0.2069380844236527 0  0.1225167704961566 0.1764957192948648 0  0.1357996569043286 0.1472158045151807 0  0.1619764829264572 0.126298308975886 0  0.1935640279204225 0.116654032325456 0  1.82457000000085 0.2346439024393236 0  0.8027657238591595 0.149277802568535 0  1.498563450727992 0.2632867809910664 0  0.2770405925201826 0.1924926016722167 0  0.470924801584011 0.09138612536042019 0  0.550693598792917 0.2898604497866635 0  0.381089831438127 0.3238078833671811 0  2.074516462495042 0.125705772324225 0  2.083599037046577 0.2769549245607841 0  0.2692296340100125 0.2210592970306522 0  0.7614733075682367 0.2839235561638241 0  1.536698221979284 0.1258192462655419 0  1.231809489345021 0.1282542717942667 0  1.054759157670174 0.1242749934189342 0  1.754535566851005 0.1223197024158991 0  1.90452621597739 0.1324728094649104 0  0.2672409321155211 0.178737994598723 0  1.254401531996246 0.2902808614622134 0  1.04350934597445 0.2986664252663559 0  0.0749710792305778 0.3208721925318313 0  0.5425289614095572 0.165152457827861 0  0.1663208394680799 0.2644065126118989 0  0.1471335176887868 0.2433864007787126 0  0.1345556779484054 0.219852318055334 0  0.131940483167677 0.1932967226753857 0  0.1941574795820069 0.2685534232066453 0  0.2226696214021025 0.1252682734732412 0  0.2193882214552426 0.2661718674478616 0  0.1396865053227576 0.1677617654469802 0  0.8749487631478475 0.295170577255529 0  1.424301820545763 0.1157348858866879 0  1.918515045506933 0.2902236143624367 0  1.744876807925144 0.306628844405037 0  0.2443979144126529 0.254353837216211 0  0.2569054246570621 0.2306780201523878 0  0.2632507216716993 0.2062296523407826 0  0.4609453431326088 0.3138128990490959 0  0.3578015395476809 0.08253318517696946 0  0.2529777826635333 0.155582948480283 0  0.1580369715200277 0.1487041474358234 0  0.652872088668587 0.3101079993636056 0  0.297147332491062 0.2558065812325378 0  0.6188247313471635 0.1101603945467571 0  0.8951149554961688 0.1123812542864208 0  1.592749166085722 0.2985190085719691 0  1.40420309431358 0.2992155383468256 0  1.649189110727275 0.1000387439201274 0  0.2301663900864273 0.1432830242131801 0  0.2064839406544439 0.1345771465164309 0  0.2548204572493643 0.1702022465417566 0  0.1606700828011604 0.2481621709908606 0  0.2605987457303776 0.1928909671966518 0  0.1826942838524941 0.2594610608897559 0  0.1456438338561037 0.2290651013631561 0  0.1387681034994896 0.2058679665896095 0  1.140902260384949 0.3081952438204152 0  2.123402621966431 0.2039515281261525 0  0.7272188829630218 0.1047469619375249 0  0.2060868819369127 0.2616331638469837 0  0.246763614216289 0.2411610007697902 0  0.1405961691450822 0.1819800466423126 0  1.149638048863541 0.08264492713269313 0  0.1809997740285721 0.1365020267363126 0  1.993198408221569 0.09755938404998035 0  0.2287111352430851 0.2547015941619741 0  0.3818716699056283 0.2060398770290832 0  0.39147508084147 0.2656155699545688 0  0.151201080877373 0.1608659990301362 0  0.0542521118046473 0.1382221876243976 0  0.06190301158313444 0.0685934933767465 0  1.317316039400266 0.1015983144534349 0  0.2176417279723976 0.1415790407114221 0  0.2401571300978209 0.1529210337009423 0  0.2618092962776011 0.3566662607419938 0  0.1941527094396574 0.1377969918002053 0  0.9590486261329707 0.3255353063371385 0  0.1708201090411339 0.1447474051814825 0  1.837592370686806 0.3302992722413595 0  0.3197015570210796 0.1212159119695666 0  0.4155281956943757 0.1409543952531078 0  0.0549491513262805 0.2307535706287103 0  0.1668210562270142 0.3605647861782867 0  0.2854688902460447 0.2093700809023571 0  2.013251581901814 0.3292746985146142 0  0.1192191106244758 0.2809901915857802 0  0.2487958366614321 0.04556523514103697 0  0.09061021186838321 0.2240174335271237 0  1.737143840576958 0.20912817770623 0  0.04515017012776967 0.2784708690411318 0  0.5347554646753627 0.08988970780599832 0  0.977104673723579 0.08241628541188413 0  0.336509991617897 0.2888965225844298 0  0.2569238041969055 0.2173711314485607 0  1.906541186051535 0.2125389476829634 0  0.1762338839607841 0.3102437166134606 0  1.449268841077636 0.201011295143529 0  0.8555371485878378 0.2099663446585434 0  1.837208236203613 0.07556229833764837 0  1.264402545318887 0.1992523923163096 0  1.068181074047183 0.2155119107017876 0  0.3158931250274742 0.3421721218291775 0  0.2731958384900449 0.2373435058667565 0  0.09875906484220501 0.1533097574901186 0  0.7355755433976705 0.2066339904079041 0  1.567440499207928 0.2049999999995983 0  1.329829828222916 0.3295825481537897 0  0.8214190147401245 0.07894167681990104 0  1.525459989258997 0.3394220200696043 0  0.1990897327079506 0.06300531675246424 0  0.244701762210989 0.3062404318132603 0  0.1033853772622983 0.3551443431224104 0  0.1178236825374896 0.07148041782551597 0  0.1558198999929474 0.04409380269139784 0  0.3389178979413869 0.198678920661321 0  0.310790717645908 0.2196004930752872 0  2.125022007676643 0.3402049371791425 0  2.130028889485561 0.06535501282233655 0  0.4821161335597635 0.1626909543876269 0  0.2838678108956019 0.1254276466262967 0  0.5062815929260498 0.2376271077316994 0  1.663059277092996 0.3422301118688678 0  1.82292665764828 0.1574809263836269 0  2.052538557905295 0.05717536030732174 0  0.3078251537889645 0.16056368457456 0  0.8108267070172145 0.3390047366820738 0  1.487254632568403 0.0703866281621833 0  0.155004430757041 0.2369517702015699 0  0.1725545045705267 0.2519594403466565 0  0.1445581653510352 0.2167994984574706 0  0.1420710285613199 0.1942747855116325 0  1.461861739291679 0.3471998553985149 0  0.2372128969196007 0.2453440460936858 0  0.1943665918892754 0.2580518465884657 0  0.2452139232912363 0.1629124725160763 0  0.2555786751481889 0.1825885041235872 0  2.14640473333793 0.2790222779730848 0  2.145589594789407 0.1282024626544199 0  0.1486651579751984 0.1726583296292201 0  0.550000000001476 0.3603327897285098 0  0.0505668771231032 0.3660023622363767 0  1.049999999997169 0.05217028468202135 0  1.244771793631775 0.05744029386223062 0  0.1356759337238615 0.1094447816941579 0  0.5872326411628903 0.2223148728195226 0  0.2168458206248643 0.2558159203714847 0  1.749999999998732 0.05166028789524129 0  0.2855257256666041 0.1763246086558152 0  1.92
[...]
<PointData  Vectors="f_22"> 
<DataArray  type="Float64"  Name="f_22"  NumberOfComponents="3" format="ascii">0.0000000000000000e+00 0.0000000000000000e+00 0.0000000000000000e+00  0.0000000000000000e+00 0.0000000000000000e+00 0.0000000000000000e+00  0.0000000000000000e+00 0.0000000000000000e+00 0.0000000000000000e+00  0.0000000000000000e+00 0.0000000000000000e+00 0.0000000000000000e+00  0.0000000000000000e+00 0.0000000000000000e+00 0.0000000000000000e+00  0.0000000000000000e+00 0.0000000000000000e+00 0.0000000000000000e+00  0.0000000000000000e+00 0.0000000000000000e+00 0.0000000000000000e+00  0.0000000000000000e+00 0.0000000000000000e+00 0.0000000000000000e+00  0.0000000000000000e+00 0.0000000000000000e+00 0.0000000000000000e+00  0.0000000000000000e+00 0.0000000000000000e+00 0.0000000000000000e+00  0.0000000000000000e+00 0.0000000000000000e+00 0.0000000000000000e+00  0.0000000000000000e+00 0.0000000000000000e+00 0.0000000000000000e+00  0.0000000000000000e+00 0.0000000000000000e+00 0.0000000000000000e+00  0.0000000000000000e+00 0.0000000000000000e+00 0.0000000000000000e+00  0.0000000000000000e+00 0.0000000000000000e+00 0.0000000000000000e+00  0.0000000000000000e+00 0.0000000000000000e+00 0.0000000000000000e+00  0.0000000000000000e+00 0.0000000000000000e+00 0.0000000000000000e+00  0.0000000000000000e+00 0.0000000000000000e+00 0.0000000000000000e+00  0.0000000000000000e+00 0.0000000000000000e+00 0.0000000000000000e+00  0.0000000000000000e+00 0.0000000000000000e+00 0.0000000000000000e+00  0.0000000000000000e+00 0.0000000000000000e+00 0.0000000000000000e+00  0.0000000000000000e+00 0.0000000000000000e+00 0.0000000000000000e+00  0.0000000000000000e+00 0.0000000000000000e+00 0.0000000000000000e+00  0.0000000000000000e+00 0.0000000000000000e+00 0.0000000000000000e+00  0.0000000000000000e+00 0.0000000000000000e+00 0.0000000000000000e+00  0.0000000000000000e+00 0.0000000000000000e+00 0.0000000000000000e+00  0.0000000000000000e+00 0.0000000000000000e+00 0.0000000000000000e+00  0.0000000000000000e+00 0.0000000000000000e+00 0.0000000000000000e+00  0.0000000000000000e+00 0.0000000000000000e+00 0.0000000000000000e+00  0.0000000000000000e+00 0.0000000000000000e+00 0.0000000000000000e+00  0.0000000000000000e+00 0.0000000000000000e+00 0.0000000000000000e+00  0.0000000000000000e+00 0.0000000000000000e+00 0.0000000000000000e+00  0.0000000000000000e+00 0.0000000000000000e+00 0.0000000000000000e+00  0.0000000000000000e+00 0.0000000000000000e+00 0.0000000000000000e+00  0.0000000000000000e+00 0.0000000000000000e+00 0.0000000000000000e+00  0.0000000000000000e+00 0.0000000000000000e+00 0.0000000000000000e+00  0.0000000000000000e+00 0.0000000000000000e+00 0.0000000000000000e+00  0.0000000000000000e+00 0.0000000000000000e+00 0.0000000000000000e+00  0.0000000000000000e+00 0.0000000000000000e+00 0.0000000000000000e+00  0.0000000000000000e+00 0.0000000000000000e+00 0.0000000000000000e+00  0.0000000000000000e+00 0.0000000000000000e+00 0.0000000000000000e+00  0.0000000000000000e+00 0.0000000000000000e+00 0.0000000000000000e+00  0.0000000000000000e+00 0.0000000000000000e+00 0.0000000000000000e+00  0.0000000000000000e+00 0.0000000000000000e+00 0.0000000000000000e+00  0.0000000000000000e+00 0.0000000000000000e+00 0.0000000000000000e+00  0.0000000000000000e+00 0.0000000000000000e+00 0.0000000000000000e+00  0.0000000000000000e+00 0.0000000000000000e+00 0.0000000000000000e+00  0.0000000000000000e+00 0.0000000000000000e+00 0.0000000000000000e+00  0.0000000000000000e+00 0.0000000000000000e+00 0.0000000000000000e+00  0.0000000000000000e+00 0.0000000000000000e+00 0.0000000000000000e+00  0.0000000000000000e+00 0.0000000000000000e+00 0.0000000000000000e+00  0.0000000000000000e+00 0.0000000000000000e+00 0.0000000000000000e+00  0.0000000000000000e+00 0.0000000000000000e+00 0.0000000000000000e+00  0.0000000000000000e+00 0.0000000000000000e+00 0.0000000000000000e+00  0.0000000000000000e+00 0.0000000000000000e+00 0.0000000000000000e+00  0.0000000000000000e+00 0.0000000000000000e+00 0.0000000000000000e+00  0.0000000000000000e+00 0.0000000000000000e+00 0.0000000000000000e+00  1.1191670764308010e+00 -1.3578167300658811e-04 0.0000000000000000e+00  1.2215169450686445e+00 -1.3167717230327795e-04 0.0000000000000000e+00  1.2214794889602394e+00 -1.2351201537497278e-05 0.0000000000000000e+00  1.1194119674020975e+00 -3.1129360481975589e-05 0.0000000000000000e+00  0.0000000000000000e+00 0.0000000000000000e+00 0.0000000000000000e+00  0.0000000000000000e+00 0.0000000000000000e+00 0.0000000000000000e+00  0.0000000000000000e+00 0.0000000000000000e+00 0.0000000000000000e+00  0.0000000000000000e+00 0.0000000000000000e+00 0.0000000000000000e+00  0.0000000000000000e+00 0.0000000000000000e+00 0.0000000000000000e+00  0.0000000000000000e+00 0.0000000000000000e+00 0.0000000000000000e+00  0.0000000000000000e+00 0.0000000000000000e+00 0.0000000000000000e+00  0.0000000000000000e+00 0.0000000000000000e+00 0.0000000000000000e+00  0.0000000000000000e+00 0.0000000000000000e+00 0.0000000000000000e+00  0.0000000000000000e+00 0.0000000000000000e+00 0.0000000000000000e+00  0.0000000000000000e+00 0.0000000000000000e+00 0.0000000000000000e+00  0.0000000000000000e+00 0.0000000000000000e+00 0.0000000000000000e+00  0.0000000000000000e+00 0.0000000000000000e+00 0.0000000000000000e+00  0.0000000000000000e+00 0.0000000000000000e+00 0.0000000000000000e+00  0.0000000000000000e+00 0.0000000000000000e+00 0.0000000000000000e+00  0.0000000000000000e+00 0.0000000000000000e+00 0.0000000000000000e+00  0.0000000000000000e+00 0.0000000000000000e+00 0.0000000000000000e+00  0.0000000000000000e+00 0.0000000000000000e+00 0.0000000000000000e+00  0.0000000000000000e+00 0.0000000000000000e+00 0.0000000000000000e+00  0.0000000000000000e+00 0.0000000000000000e+00 0.0000000000000000e+00  0.0000000000000000e+00 0.0000000000000000e+00 0.0000000000000000e+00  9.6000004866592203e-01 0.0000000000000000e+00 0.0000000000000000e+00  1.4400000730002052e+00 0.0000000000000000e+00 0.0000000000000000e+00  1.4400000730027835e+00 0.0000000000000000e+00 0.0000000000000000e+00  9.6000004866956146e-01 0.0000000000000000e+00 0.0000000000000000e+00  -2.5279527367178167e-01 2.1074218581177562e-01 0.0000000000000000e+00  3.7287402222608523e-01 -3.8786387009473372e-02 0.0000000000000000e+00  1.2461335147144467e-02 7.5335124340140166e-03 0.0000000000000000e+00  1.8775824757827120e+00 -8.0321243708651777e-02 0.0000000000000000e+00  1.9386593468609152e+00 1.1847832108439553e-01 0.0000000000000000e+00  1.4578637975156119e+00 2.2212370809450355e-01 0.0000000000000000e+00  1.3112308604484701e+00 3.5116126337231823e-01 0.0000000000000000e+00  1.3299001340834269e+00 2.5478527758629149e-01 0.0000000000000000e+00  1.3060980145312810e+00 -7.9329185207577715e-02 0.0000000000000000e+00  1.2662178275132634e+00 -3.3183537665304719e-01 0.0000000000000000e+00  1.4160666731576634e+00 -3.8433160095119440e-01 0.0000000000000000e+00  -2.2276177629683006e-01 -1.0362774133996425e-01 0.0000000000000000e+00  1.2226098798372960e+00 -1.5311911148387970e-05 0.0000000000000000e+00  5.7693689655679316e-02 -1.2809110310103186e-01 0.0000000000000000e+00  -1.2517828582837193e-01 2.7851119129656932e-02 0.0000000000000000e+00  5.5178554787654766e-01 -3.0518887216465196e-01 0.0000000000000000e+00  2.3777598061165436e-01 4.3246463109381232e-02 0.0000000000000000e+00  1.8954175279090577e+00 -2.5590260527530045e-01 0.0000000000000000e+00  1.2213316101838934e+00 -4.9471881604565638e-03 0.0000000000000000e+00  1.1694917548105477e+00 6.0655077481355429e-02 0.0000000000000000e+00  1.2379156883146809e+00 4.3373291135515947e-02 0.0000000000000000e+00  1.6941364782206905e+00 2.1512096820029916e-01 0.0000000000000000e+00  1.2569745829428063e+00 -6.4350986642280200e-02 0.0000000000000000e+00  8.7526756168715691e-01 -7.5783384085285371e-02 0.0000000000000000e+00  1.9855222331534936e+00 4.4852103719143516e-01 0.0000000000000000e+00  1.8533530401922083e+00 6.4576804951131173e-01 0.0000000000000000e+00  1.4851039380672775e+00 7.7003903056509315e-01 0.0000000000000000e+00  1.1422583648400371e+00 5.5286531284271534e-01 0.0000000000000000e+00  9.3798089540892104e-01 9.4931320462695701e-02 0.0000000000000000e+00  9.8594454231622175e-01 -4.0919928273138612e-01 0.0000000000000000e+00  1.2940543055726146e+00 -7.1035880161722342e-01 0.0000000000000000e+00  1.6535885492067703e+00 -7.2906391020721339e-01 0.0000000000000000e+00  1.9115450929333366e+00 -5.4115301491733470e-01 0.0000000000000000e+00  1.2224733008514637e+00 -4.0432215068823032e-04 0.0000000000000000e+00  1.7104534768236301e+00 2.2004109048811507e-01 0.0000000000000000e+00  1.2603246072141092e+00 1.4171443374257034e-03 0.0000000000000000e+00  -1.2899191222208223e-01 -1.0365599757421662e-01 0.0000000000000000e+00  1.7065780687592307e+00 2.4551615110950756e-01 0.0000000000000000e+00  1.8628087249352385e+00 -4.5473962739142648e-01 0.0000000000000000e+00  1.8598554924447446e+00 -3.5871894870770651e-02 0.0000000000000000e+00  1.2116860473533806e+00 -4.1788007877262116e-05 0.0000000000000000e+00  1.2156220225714900e+00 5.4769574089833916e-06 0.0000000000000000e+00  -9.4421363536410563e-02 4.4495353518092043e-02 0.0000000000000000e+00  1.4687283587595346e+00 4.9064174617977262e-02 0.0000000000000000e+00  1.1991856792884459e+00 -1.5041650367338138e-04 0.0000000000000000e+00  1.4065581256380226e+00 -1.4627381299795097e-02 0.0000000000000000e+00  1.3651325969200958e+00 -5.6767279218706834e-02 0.0000000000000000e+00  1.2084236444754857e+00 -5.6354447704036134e-04 0.0000000000000000e+00  1.2152662687915368e+00 -5.0582431256469003e-05 0.0000000000000000e+00  -7.3591459834824263e-02 -1.5359611917972485e-01 0.0000000000000000e+00  1.2890060919631265e+00 4.9541037376427025e-02 0.0000000000000000e+00  1.3240600261156779e+00 2.6512736462629673e-02 0.0000000000000000e+00  1.0772109896253144e+00 1.6897235171289346e-01 0.0000000000000000e+00  2.8300059455795179e-01 1.6889528605609969e-01 0.0000000000000000e+00  1.7329447436143139e+00 8.5595390722720199e-01 0.0000000000000000e+00  1.2265507923225063e+00 9.3606273753984615e-01 0.0000000000000000e+00  7.5621840926263595e-01 5.0138371580552454e-01 0.0000000000000000e+00  6.4573507141414377e-01 -2.0831383887604005e-01 0.0000000000000000e+00  1.9967589380498880e+00 5.9946545361174897e-01 0.0000000000000000e+00  1.9107179270061641e+00 -3.1681527554001643e-01 0.0000000000000000e+00  1.4549303199206485e+00 2.1330512137869176e-01 0.0000000000000000e+00  9.6829213112637991e-01 -8.1011323056914208e-01 0.0000000000000000e+00  1.5322904379863611e+00 -6.0555652700841602e-02 0.0000000000000000e+00  1.1891588832884308e+00 -9.3918098277652792e-03 0.0000000000000000e+00  1.2067491840511839e+00 2.7025971826987790e-05 0.0000000000000000e+00  1.1857421160117516e+00 -5.9440238772025418e-04 0.0000000000000000e+00  2.4737603174266365e-01 4.3983404772531487e-02 0.0000000000000000e+00  -6.5572135080377417e-02 8.1113795202014921e-02 0.0000000000000000e+00  -6.0762664552465435e-02 -2.1867942522572098e-02 0.0000000000000000e+00  1.9376739861398082e+00 -1.8406630331920840e-01 0.0000000000000000e+00  1.8842365539567389e+00 8.7162709231542762e-02 0.0000000000000000e+00  -7.5562403394916263e-03 -9.8107083217961619e-02 0.0000000000000000e+00  1.5157629827945860e+00 -1.0521798043356332e+00 0.0000000000000000e+00  1.3905136355960768e+00 -1.7854609274534938e-01 0.0000000000000000e+00  3.5867450922799654e-01 8.1320208884485927e-03 0.0000000000000000e+00  1.6656590322478437e+00 1.4216707380450624e-01 0.0000000000000000e+00  1.3041185178998504e+00 -6.4505594075285264e-02 0.0000000000000000e+00  1.2052308301583752e+00 -5.8178440044777003e-03 0.0000000000000000e+00  1.2459047360513162e+00 5.2197653780045985e-03 0.0000000000000000e+00  1.1767340354339957e+00 -2.1396492455300360e-04 0.0000000000000000e+00  4.1034791957040356e-01 -3.9976670156633906e-02 0.0000000000000000e+00  1.6945863760473023e+00 -3.4881793004116390e-01 0.0000000000000000e+00  -6.2102811428476533e-02 -1.3431274215656980e-01 0.0000000000000000e+00  1.4993953618471116e+00 1.1078732312571371e+00 0.0000000000000000e+00  -4.7585534651888202e-02 -9.5012200898719104e-02 0.0000000000000000e+00  1.8644800691490535e+00 7.6731038247923877e-01 0.0000000000000000e+00  8.3507429216017104e-01 9.1176733503516882e-01 0.0000000000000000e+00  4.2817194038817952e-01 1.8605883775297394e-01 0.0000000000000000e+00  1.1845628740761369e+00 1.1847016768341864e-01 0.0000000000000000e+00  1.2226363877496760e+00 -3.7922661564111951e-05 0.0000000000000000e+00  1.5385755822253953e+00 2.4831184534448461e-01 0.0000000000000000e+00  1.3582207354819786e+00 2.4763172780987608e-01 0.0000000000000000e+00  -5.2500629880326360e-02 7.3512580828593910e-02 0.0000000000000000e+00  5.9752694939593298e-01 -6.4187119335620069e-01 0.0000000000000000e+00  1.0727239503023056e+00 -4.2361379381612080e-02 0.0000000000000000e+00  1.9404239304379212e+00 -8.0866956299366044e-01 0.0000000000000000e+00  1.1723290643320914e+00 -2.3246180139115776e-05 0.0000000000000000e+00  2.7793157767671950e-01 2.8362258016756989e-02 0.0000000000000000e+00  -4.8535685047948202e-01 3.6477065049128010e-02 0.0000000000000000e+00  8.6570448177177017e-01 -2.8329093216680696e-03 0.0000000000000000e+00  1.1679485417657016e+00 -1.0976501334820243e+00 0.0000000000000000e+00  1.3200009700668474e+00 -1.3925269228944123e-01 0.0000000000000000e+00  8.8492382991258545e-01 -1.1469401622008558e-01 0.0000000000000000e+00  1.1786084196990418e+00 -5.8767517599196920e-02 0.0000000000000000e+00  6.8838112184993594e-01 -6.3813640615161954e-02 0.0000000000000000e+00  -6.4761133735352708e-03 -5.9388611774251129e-02 0.0000000000000000e+00  1.4087399472160718e+00 8.7347244599846399e-02 0.0000000000000000e+00  1.7825035642504938e+00 -5.1984239913624175e-01 0.0000000000000000e+00  1.0418101156264341e+00 -4.4885504123741780e-02 0.0000000000000000e+00  1.7715078101939554e+00 -1.0073584020038340e+00 0.0000000000000000e+00  1.1090389289106022e+00 9.9413979245241896e-06 0.0000000000000000e+00  1.6203119606118670e+00 -1.0657788076599844e-02 0.0000000000000000e+00  1.0903650126755746e+00 2.4906807794806374e-01 0.0000000000000000e+00  1.4134997970565848e+00 8.3581698776890423e-02 0.0000000000000000e+00  1.0297883937782657e+00 1.6411302191587246e-01 0.0000000000000000e+00  -1.7746849481947768e-01 -2.7292053627571200e-02 0.0000000000000000e+00  1.1142793407859826e+00 4.8048669890931305e-05 0.0000000000000000e+00  1.3587639962366451e+00 4.3231664193909097e-01 0.0000000000000000e+00  1.3583065194285280e+00 -8.3662038111460821e-02 0.0000000000000000e+00  1.2692190158783783e+00 1.5862644676276094e-01 0.0000000000000000e+00  1.2227059373595011e+00 -1.5566595687880186e-03 0.0000000000000000e+00  1.3031379220813573e+00 1.1377847791975539e-01 0.0000000000000000e+00  1.5755285665989980e+00 1.6400753773375243e-01 0.0000000000000000e+00  1.0234433510715228e+00 -6.9830695540872123e-02 0.0000000000000000e+00  1.8013719752683601e+00 1.1805498312120320e-02 0.0000000000000000e+00  -4.1731980253596722e-02 4.2406284657022855e-02 0.0000000000000000e+00  1.2227443126174080e+00 -1.0278583751832453e-04 0.0000000000000000e+00  1.5716828771045315e+00 4.0983864387753033e-01 0.0000000000000000e+00  1.1960399902286794e+00 -1.2158058043579507e-02 0.0000000000000000e+00  1.2498557159617527e+00 1.4876063134851444e-01 0.0000000000000000e+00  1.0867607873060554e+00 -3.5639640216816500e-05 0.0000000000000000e+00  1.2019157446275126e+00 1.6472813677487579e-02 0.0000000000000000e+00  1.4995690151952432e+00 -7.4369844619602263e-02 0.0000000000000000e+00  1.6544626848293993e+00 3.7399124538051616e-02 0.0000000000000000e+00  -4.4061332355007823e-02 6.1132631933181955e-02 0.0000000000000000e+00  1.2708386588002758e+00 -3.2714938226124363e-01 0.0000000000000000e+00  8.4770656280888612e-01 -5.1680613459915911e-02 0.0000000000000000e+00  1.2145618289054074e+00 -1.2201464438517521e-02 0.0000000000000000e+00  1.0892015669475967e+00 1.6621107730665028e-02 0.0000000000000000e+00  8.8964840300405368e-01 3.8025579418046115e-02 0.0000000000000000e+00  1.0614809576917201e+00 2.1144147161235925e-03 0.0000000000000000e+00  1.3851971032034442e+00 -2.2522874377937979e-01 0.0000000000000000e+00  1.8843710397583882e+00 2.3581002137567278e-01 0.0000000000000000e+00  8.4500674204848514e-01 1.3924616155266989e-01 0.0000000000000000e+00  1.0649666508292670e+00 -2.4354510873771307e-01 0.0000000000000000e+00  9.6205954932229709e-01 -1.6021464874031718e-01 0.0000000000000000e+00  -3.6352501181908875e-01 -7.3739114198390521e-02 0.0000000000000000e+00  -2.2579701499107510e-01 -1.4477179262725140e-02 0.0000000000000000e+00  1.0516038913669561e+00 1.0692954284090024e-06 0.0000000000000000e+00  1.0193421620238452e+00 -9.2080106083963228e-05 0.0000000000000000e+00  4.0328160477813046e-01 3.3451712171554354e-01 0.0000000000000000e+00  1.4492970687528730e+00 -7.7389528852742112e-02 0.0000000000000000e+00  6.6035352339870812e-01 -5.6354016316874596e-02 0.0000000000000000e+00  1.0402830516052168e+00 -1.1113319511973369e-03 0.0000000000000000e+00  1.2209539089350423e+00 -3.6240916315434432e-04 0.0000000000000000e+00  9.4893539495262269e-01 -4.3284517111114577e-05 0.0000000000000000e+00  9.7626906769428631e-02 -1.2793549870704898e-01 0.0000000000000000e+00  9.5104216183462043e-01 4.5058091665839571e-03 0.0000000000000000e+00  1.0592320850907697e+00 3.9607916532476374e-03 0.0000000000000000e+00  1.0831567347692128e+00 1.1236826393754860e+00 0.0000000000000000e+00  1.6464625151532852e+00 9.5163601460438407e-01 0.0000000000000000e+00  4.4660079858727592e-01 6.3717380353456876e-01 0.0000000000000000e+00  3.0577830104033904e-01 -2.6341738900472467e-01 0.0000000000000000e+00  9.8399276434880367e-01 1.1209810751154861e-02 0.0000000000000000e+00  -3.1647252308617417e-02 5.1736587463341678e-02 0.0000000000000000e+00  1.3815805584409264e+00 3.6597807519784659e-01 0.0000000000000000e+00  -6.4690588891957251e-02 -8.5927963664015547e-02 0.0000000000000000e+00  -4.2858469187929599e-02 -1.1469167645847272e-01 0.0000000000000000e+00  1.2147267032547566e+00 -5.4697564871333898e-06 0.0000000000000000e+00  1.2132199732331508e+00 -1.0246468174901114e-04 0.0000000000000000e+00  7.4863629207803972e-01 -9.9949270017963510e-01 0.0000000000000000e+00  1.0753842596751997e+00 -1.6971718670558603e-01 0.0000000000000000e+00  6.1119477635075026e-01 5.1906752563375777e-02 0.0000000000000000e+00  6.2689292388875006e-01 -3.4053385679218492e-02 0.0000000000000000e+00  8.1320119468128449e-01 -4.5060808390361591e-02 0.0000000000000000e+00  1.3853198884635469e+00 -4.7994635252520151e-01 0.0000000000000000e+00  8.7417065732963828e-01 -4.0811521730853612e-01 0.0000000000000000e+00  4.4000552808278220e-01 2.7682411879461126e-02 0.0000000000000000e+00  8.9225410649341175e-01 -1.1806364654943676e-04 0.0000000000000000e+00  -9.0954535201417969e-02 -1.4681211136121780e-01 0.0000000000000000e+00  1.0166601001380027e+00 1.1681618804491166e-05 0.0000000000000000e+00  1.5059693195277168e+00 1.5446336888084025e-01 0.0000000000000000e+00  9.4768111445406855e-01 2.3039014962177775e-03 0.0000000000000000e+00  1.7526612554351741e+00 1.4780488924728571e-01 0.0000000000000000e+00  1.4587744380484517e+00 -1.6120154726061542e-02 0.0000000000000000e+00  1.5656372976701118e+00 5.8267127426665044e-01 0.0000000000000000e+00  8.7400212194123816e-01 7.3043102298347793e-03 0.0000000000000000e+00  1.2193944840913167e+00 -1.4767103737788369e-03 0.0000000000000000e+00  1.2224078870261124e+00 -2.7598680582446022e-03 0.0000000000000000e+00  1.2180368455751382e+00 -1.7925746803948925e-03 0.0000000000000000e+00  1.2211732349249458e+00 -1.0570685622490945e-03 0.0000000000000000e+00  1.1965276259121049e+00 -6.9281922474373936e-04 0.0000000000000000e+00  1.3037652655709548e+00 -3.3486760246113176e-02 0.0000000000000000e+00  1.3797201131237009e+00 -5.1284954738446777e-02 0.0000000000000000e+00  1.3088832047588823e+00 -4.9395623069338986e-02 0.0000000000000000e+00  1.3075430870516540e+00 -4.1055923753478357e-02 0.0000000000000000e+00  1.221471617927492