<?xml version="1.0"?>
<VTKFile type="UnstructuredGrid"  version="0.1"  >
<UnstructuredGrid>
<Piece  NumberOfPoints="3852" NumberOfCells="7360">
<Points>
<DataArray  type="Float64"  NumberOfComponents="3"  format="ascii">0 0 0  0 0.41 0  2.2 0.41 0  2.2 0 0  0.2 0.15 0  0.15 0.2 0  0.2 0.25 0  0.25 0.2 0  0.2097545161007899 0.1509607359798352 0  0.219134171618224 0.153806023374423 0  0.2277785116509268 0.1584265193848371 0  0.2353553390592504 0.1646446609405956 0  0.2415734806150793 0.1722214883489481 0  0.2461939766255306 0.1808658283816641 0  0.249039264020151 0.1902454838991403 0  0.2490392640201666 0.2097545161007811 0  0.2461939766255869 0.2191341716182 0  0.2415734806151802 0.2277785116509009 0  0.2353553390594108 0.235355339059244 0  0.2277785116510524 0.2415734806150789 0  0.2191341716182962 0.2461939766255471 0  0.209754516100834 0.2490392640201561 0  0.1902454838992189 0.2490392640201666 0  0.1808658283818 0.2461939766255869 0  0.1722214883490991 0.2415734806151802 0  0.164644660940756 0.2353553390594108 0  0.1584265193849211 0.2277785116510524 0  0.1538060233744529 0.2191341716182962 0  0.150960735979844 0.209754516100834 0  0.1509607359798352 0.1902454838992101 0  0.153806023374423 0.180865828381776 0  0.1584265193848371 0.1722214883490732 0  0.1646446609405956 0.1646446609407496 0  0.1722214883489481 0.1584265193849207 0  0.1808658283816641 0.1538060233744694 0  0.1902454838991403 0.150960735979849 0  0.09999999999980318 0 0  0.1999999999996354 0 0  0.2999999999994593 0 0  0.3999999999991452 0 0  0.4999999999988309 0 0  0.599999999998495 0 0  0.6999999999982023 0 0  0.7999999999979096 0 0  0.8999999999975735 0 0  0.9999999999972848 0 0  1.099999999997053 0 0  1.199999999997309 0 0  1.299999999997566 0 0  1.399999999997821 0 0  1.49999999999809 0 0  1.599999999998377 0 0  1.69999999999859 0 0  1.799999999998877 0 0  1.899999999999145 0 0  1.999999999999386 0 0  2.099999999999693 0 0  2.2 0.08199999999981657 0  2.2 0.1639999999995688 0  2.2 0.2459999999995603 0  2.2 0.327999999999785 0  2.100000000000048 0.41 0  2.000000000000269 0.41 0  1.900000000000422 0.41 0  1.800000000000679 0.41 0  1.700000000000931 0.41 0  1.600000000001326 0.41 0  1.500000000001665 0.41 0  1.400000000002032 0.41 0  1.300000000002395 0.41 0  1.200000000002644 0.41 0  1.100000000002865 0.41 0  1.000000000002617 0.41 0  0.900000000002368 0.41 0  0.8000000000021192 0.41 0  0.7000000000018587 0.41 0  0.6000000000015786 0.41 0  0.5000000000013736 0.41 0  0.4000000000010933 0.41 0  0.3000000000008329 0.41 0  0.2000000000005997 0.41 0  0.1000000000003003 0.41 0  0 0.3280000000001975 0  0 0.2460000000004372 0  0 0.1640000000004437 0  0 0.08200000000021695 0  0.439039350479032 0.2235433210862024 0  0.3557293424662716 0.1539377961885917 0  0.3450132387946972 0.2399891502764809 0  0.2900756359792848 0.08507884665974728 0  0.2884413411145515 0.3059878288466324 0  0.2102195502178943 0.3385267178242456 0  0.137328909169326 0.3152847369018352 0  0.08490385663776813 0.2628976192695439 0  0.08063302347471875 0.188368977740952 0  0.1005937615311739 0.1162460982751979 0  0.1621860847198582 0.08598327887900903 0  0.3012864586130264 0.1926027915888804 0  1.999140000000448 0.2049999999995642 0  0.2742354912953259 0.1572259708446958 0  0.2871471664627305 0.2264358039321654 0  0.6542851578645765 0.1981889790488746 0  0.2651366296338276 0.2534562504463119 0  0.2371819217149928 0.0977949043027586 0  1.651678197071202 0.2145186615851206 0  1.349674714201118 0.2086119645070391 0  0.9627539291831038 0.2056711800839285 0  0.2360880502985623 0.2733043913425156 0  1.159884231859056 0.2050429640239795 0  0.2502927927237266 0.1358797630898622 0  0.2080582834123368 0.2835355213895352 0  0.1805439632603489 0.278338480667804 0  0.1486243506827335 0.2626014098227327 0  0.1266658889266303 0.2392753516137401 0  0.1179814841582247 0.2069380844236527 0  0.1225167704961566 0.1764957192948648 0  0.1357996569043286 0.1472158045151807 0  0.1619764829264572 0.126298308975886 0  0.1935640279204225 0.116654032325456 0  1.82457000000085 0.2346439024393236 0  0.8027657238591595 0.149277802568535 0  1.498563450727992 0.2632867809910664 0  0.2770405925201826 0.1924926016722167 0  0.470924801584011 0.09138612536042019 0  0.550693598792917 0.2898604497866635 0  0.381089831438127 0.3238078833671811 0  2.074516462495042 0.125705772324225 0  2.083599037046577 0.2769549245607841 0  0.2692296340100125 0.2210592970306522 0  0.7614733075682367 0.2839235561638241 0  1.536698221979284 0.1258192462655419 0  1.231809489345021 0.1282542717942667 0  1.054759157670174 0.1242749934189342 0  1.754535566851005 0.1223197024158991 0  1.90452621597739 0.1324728094649104 0  0.2672409321155211 0.178737994598723 0  1.254401531996246 0.2902808614622134 0  1.04350934597445 0.2986664252663559 0  0.0749710792305778 0.3208721925318313 0  0.5425289614095572 0.165152457827861 0  0.1663208394680799 0.2644065126118989 0  0.1471335176887868 0.2433864007787126 0  0.1345556779484054 0.219852318055334 0  0.131940483167677 0.1932967226753857 0  0.1941574795820069 0.2685534232066453 0  0.2226696214021025 0.1252682734732412 0  0.2193882214552426 0.2661718674478616 0  0.1396865053227576 0.1677617654469802 0  0.8749487631478475 0.295170577255529 0  1.424301820545763 0.1157348858866879 0  1.918515045506933 0.2902236143624367 0  1.744876807925144 0.306628844405037 0  0.2443979144126529 0.254353837216211 0  0.2569054246570621 0.2306780201523878 0  0.2632507216716993 0.2062296523407826 0  0.4609453431326088 0.3138128990490959 0  0.3578015395476809 0.08253318517696946 0  0.2529777826635333 0.155582948480283 0  0.1580369715200277 0.1487041474358234 0  0.652872088668587 0.3101079993636056 0  0.297147332491062 0.2558065812325378 0  0.6188247313471635 0.1101603945467571 0  0.8951149554961688 0.1123812542864208 0  1.592749166085722 0.2985190085719691 0  1.40420309431358 0.2992155383468256 0  1.649189110727275 0.1000387439201274 0  0.2301663900864273 0.1432830242131801 0  0.2064839406544439 0.1345771465164309 0  0.2548204572493643 0.1702022465417566 0  0.1606700828011604 0.2481621709908606 0  0.2605987457303776 0.1928909671966518 0  0.1826942838524941 0.2594610608897559 0  0.1456438338561037 0.2290651013631561 0  0.1387681034994896 0.2058679665896095 0  1.140902260384949 0.3081952438204152 0  2.123402621966431 0.2039515281261525 0  0.7272188829630218 0.1047469619375249 0  0.2060868819369127 0.2616331638469837 0  0.246763614216289 0.2411610007697902 0  0.1405961691450822 0.1819800466423126 0  1.149638048863541 0.08264492713269313 0  0.1809997740285721 0.1365020267363126 0  1.993198408221569 0.09755938404998035 0  0.2287111352430851 0.2547015941619741 0  0.3818716699056283 0.2060398770290832 0  0.39147508084147 0.2656155699545688 0  0.151201080877373 0.1608659990301362 0  0.0542521118046473 0.1382221876243976 0  0.06190301158313444 0.0685934933767465 0  1.317316039400266 0.1015983144534349 0  0.2176417279723976 0.1415790407114221 0  0.2401571300978209 0.1529210337009423 0  0.2618092962776011 0.3566662607419938 0  0.1941527094396574 0.1377969918002053 0  0.9590486261329707 0.3255353063371385 0  0.1708201090411339 0.1447474051814825 0  1.837592370686806 0.3302992722413595 0  0.3197015570210796 0.1212159119695666 0  0.4155281956943757 0.1409543952531078 0  0.0549491513262805 0.2307535706287103 0  0.1668210562270142 0.3605647861782867 0  0.2854688902460447 0.2093700809023571 0  2.013251581901814 0.3292746985146142 0  0.1192191106244758 0.2809901915857802 0  0.2487958366614321 0.04556523514103697 0  0.09061021186838321 0.2240174335271237 0  1.737143840576958 0.20912817770623 0  0.04515017012776967 0.2784708690411318 0  0.5347554646753627 0.08988970780599832 0  0.977104673723579 0.08241628541188413 0  0.336509991617897 0.2888965225844298 0  0.2569238041969055 0.2173711314485607 0  1.906541186051535 0.2125389476829634 0  0.1762338839607841 0.3102437166134606 0  1.449268841077636 0.201011295143529 0  0.8555371485878378 0.2099663446585434 0  1.837208236203613 0.07556229833764837 0  1.264402545318887 0.1992523923163096 0  1.068181074047183 0.2155119107017876 0  0.3158931250274742 0.3421721218291775 0  0.2731958384900449 0.2373435058667565 0  0.09875906484220501 0.1533097574901186 0  0.7355755433976705 0.2066339904079041 0  1.567440499207928 0.2049999999995983 0  1.329829828222916 0.3295825481537897 0  0.8214190147401245 0.07894167681990104 0  1.525459989258997 0.3394220200696043 0  0.1990897327079506 0.06300531675246424 0  0.244701762210989 0.3062404318132603 0  0.1033853772622983 0.3551443431224104 0  0.1178236825374896 0.07148041782551597 0  0.1558198999929474 0.04409380269139784 0  0.3389178979413869 0.198678920661321 0  0.310790717645908 0.2196004930752872 0  2.125022007676643 0.3402049371791425 0  2.130028889485561 0.06535501282233655 0  0.4821161335597635 0.1626909543876269 0  0.2838678108956019 0.1254276466262967 0  0.5062815929260498 0.2376271077316994 0  1.663059277092996 0.3422301118688678 0  1.82292665764828 0.1574809263836269 0  2.052538557905295 0.05717536030732174 0  0.3078251537889645 0.16056368457456 0  0.8108267070172145 0.3390047366820738 0  1.487254632568403 0.0703866281621833 0  0.155004430757041 0.2369517702015699 0  0.1725545045705267 0.2519594403466565 0  0.1445581653510352 0.2167994984574706 0  0.1420710285613199 0.1942747855116325 0  1.461861739291679 0.3471998553985149 0  0.2372128969196007 0.2453440460936858 0  0.1943665918892754 0.2580518465884657 0  0.2452139232912363 0.1629124725160763 0  0.2555786751481889 0.1825885041235872 0  2.14640473333793 0.2790222779730848 0  2.145589594789407 0.1282024626544199 0  0.1486651579751984 0.1726583296292201 0  0.550000000001476 0.3603327897285098 0  0.0505668771231032 0.3660023622363767 0  1.049999999997169 0.05217028468202135 0  1.244771793631775 0.05744029386223062 0  0.1356759337238615 0.1094447816941579 0  0.5872326411628903 0.2223148728195226 0  0.2168458206248643 0.2558159203714847 0  1.749999999998732 0.05166028789524129 0  0.2855257256666041 0.1763246086558152 0  1.92
[...]
<PointData  Vectors="f_22"> 
<DataArray  type="Float64"  Name="f_22"  NumberOfComponents="3" format="ascii">0.0000000000000000e+00 0.0000000000000000e+00 0.0000000000000000e+00  0.0000000000000000e+00 0.0000000000000000e+00 0.0000000000000000e+00  0.0000000000000000e+00 0.0000000000000000e+00 0.0000000000000000e+00  0.0000000000000000e+00 0.0000000000000000e+00 0.0000000000000000e+00  0.0000000000000000e+00 0.0000000000000000e+00 0.0000000000000000e+00  0.0000000000000000e+00 0.0000000000000000e+00 0.0000000000000000e+00  0.0000000000000000e+00 0.0000000000000000e+00 0.0000000000000000e+00  0.0000000000000000e+00 0.0000000000000000e+00 0.0000000000000000e+00  0.0000000000000000e+00 0.0000000000000000e+00 0.0000000000000000e+00  0.0000000000000000e+00 0.0000000000000000e+00 0.0000000000000000e+00  0.0000000000000000e+00 0.0000000000000000e+00 0.0000000000000000e+00  0.0000000000000000e+00 0.0000000000000000e+00 0.0000000000000000e+00  0.0000000000000000e+00 0.0000000000000000e+00 0.0000000000000000e+00  0.0000000000000000e+00 0.0000000000000000e+00 0.0000000000000000e+00  0.0000000000000000e+00 0.0000000000000000e+00 0.0000000000000000e+00  0.0000000000000000e+00 0.0000000000000000e+00 0.0000000000000000e+00  0.0000000000000000e+00 0.0000000000000000e+00 0.0000000000000000e+00  0.0000000000000000e+00 0.0000000000000000e+00 0.0000000000000000e+00  0.0000000000000000e+00 0.0000000000000000e+00 0.0000000000000000e+00  0.0000000000000000e+00 0.0000000000000000e+00 0.0000000000000000e+00  0.0000000000000000e+00 0.0000000000000000e+00 0.0000000000000000e+00  0.0000000000000000e+00 0.0000000000000000e+00 0.0000000000000000e+00  0.0000000000000000e+00 0.0000000000000000e+00 0.0000000000000000e+00  0.0000000000000000e+00 0.0000000000000000e+00 0.0000000000000000e+00  0.0000000000000000e+00 0.0000000000000000e+00 0.0000000000000000e+00  0.0000000000000000e+00 0.0000000000000000e+00 0.0000000000000000e+00  0.0000000000000000e+00 0.0000000000000000e+00 0.0000000000000000e+00  0.0000000000000000e+00 0.0000000000000000e+00 0.0000000000000000e+00  0.0000000000000000e+00 0.0000000000000000e+00 0.0000000000000000e+00  0.0000000000000000e+00 0.0000000000000000e+00 0.0000000000000000e+00  0.0000000000000000e+00 0.0000000000000000e+00 0.0000000000000000e+00  0.0000000000000000e+00 0.0000000000000000e+00 0.0000000000000000e+00  0.0000000000000000e+00 0.0000000000000000e+00 0.0000000000000000e+00  0.0000000000000000e+00 0.0000000000000000e+00 0.0000000000000000e+00  0.0000000000000000e+00 0.0000000000000000e+00 0.0000000000000000e+00  0.0000000000000000e+00 0.0000000000000000e+00 0.0000000000000000e+00  0.0000000000000000e+00 0.0000000000000000e+00 0.0000000000000000e+00  0.0000000000000000e+00 0.0000000000000000e+00 0.0000000000000000e+00  0.0000000000000000e+00 0.0000000000000000e+00 0.0000000000000000e+00  0.0000000000000000e+00 0.0000000000000000e+00 0.0000000000000000e+00  0.0000000000000000e+00 0.0000000000000000e+00 0.0000000000000000e+00  0.0000000000000000e+00 0.0000000000000000e+00 0.0000000000000000e+00  0.0000000000000000e+00 0.0000000000000000e+00 0.0000000000000000e+00  0.0000000000000000e+00 0.0000000000000000e+00 0.0000000000000000e+00  0.0000000000000000e+00 0.0000000000000000e+00 0.0000000000000000e+00  0.0000000000000000e+00 0.0000000000000000e+00 0.0000000000000000e+00  0.0000000000000000e+00 0.0000000000000000e+00 0.0000000000000000e+00  0.0000000000000000e+00 0.0000000000000000e+00 0.0000000000000000e+00  0.0000000000000000e+00 0.0000000000000000e+00 0.0000000000000000e+00  0.0000000000000000e+00 0.0000000000000000e+00 0.0000000000000000e+00  0.0000000000000000e+00 0.0000000000000000e+00 0.0000000000000000e+00  0.0000000000000000e+00 0.0000000000000000e+00 0.0000000000000000e+00  0.0000000000000000e+00 0.0000000000000000e+00 0.0000000000000000e+00  0.0000000000000000e+00 0.0000000000000000e+00 0.0000000000000000e+00  0.0000000000000000e+00 0.0000000000000000e+00 0.0000000000000000e+00  0.0000000000000000e+00 0.0000000000000000e+00 0.0000000000000000e+00  0.0000000000000000e+00 0.0000000000000000e+00 0.0000000000000000e+00  1.0906516817245733e+00 -1.0961004590474453e-03 0.0000000000000000e+00  1.2605580254983466e+00 -6.7251868938734459e-03 0.0000000000000000e+00  1.2733294969090185e+00 -9.3715948660099847e-03 0.0000000000000000e+00  1.0953614424478177e+00 -2.0993243057759190e-03 0.0000000000000000e+00  0.0000000000000000e+00 0.0000000000000000e+00 0.0000000000000000e+00  0.0000000000000000e+00 0.0000000000000000e+00 0.0000000000000000e+00  0.0000000000000000e+00 0.0000000000000000e+00 0.0000000000000000e+00  0.0000000000000000e+00 0.0000000000000000e+00 0.0000000000000000e+00  0.0000000000000000e+00 0.0000000000000000e+00 0.0000000000000000e+00  0.0000000000000000e+00 0.0000000000000000e+00 0.0000000000000000e+00  0.0000000000000000e+00 0.0000000000000000e+00 0.0000000000000000e+00  0.0000000000000000e+00 0.0000000000000000e+00 0.0000000000000000e+00  0.0000000000000000e+00 0.0000000000000000e+00 0.0000000000000000e+00  0.0000000000000000e+00 0.0000000000000000e+00 0.0000000000000000e+00  0.0000000000000000e+00 0.0000000000000000e+00 0.0000000000000000e+00  0.0000000000000000e+00 0.0000000000000000e+00 0.0000000000000000e+00  0.0000000000000000e+00 0.0000000000000000e+00 0.0000000000000000e+00  0.0000000000000000e+00 0.0000000000000000e+00 0.0000000000000000e+00  0.0000000000000000e+00 0.0000000000000000e+00 0.0000000000000000e+00  0.0000000000000000e+00 0.0000000000000000e+00 0.0000000000000000e+00  0.0000000000000000e+00 0.0000000000000000e+00 0.0000000000000000e+00  0.0000000000000000e+00 0.0000000000000000e+00 0.0000000000000000e+00  0.0000000000000000e+00 0.0000000000000000e+00 0.0000000000000000e+00  0.0000000000000000e+00 0.0000000000000000e+00 0.0000000000000000e+00  0.0000000000000000e+00 0.0000000000000000e+00 0.0000000000000000e+00  9.6000005141556444e-01 0.0000000000000000e+00 0.0000000000000000e+00  1.4400000771246690e+00 0.0000000000000000e+00 0.0000000000000000e+00  1.4400000771272474e+00 0.0000000000000000e+00 0.0000000000000000e+00  9.6000005141920397e-01 0.0000000000000000e+00 0.0000000000000000e+00  -1.3847530896622959e-01 -6.9350433002761402e-01 0.0000000000000000e+00  1.9373680164489124e-01 -8.9682413388048707e-02 0.0000000000000000e+00  2.9793012197236135e-01 -2.6596670464285443e-02 0.0000000000000000e+00  1.8205914553503961e+00 -7.9513219198400167e-02 0.0000000000000000e+00  1.9752587628939471e+00 4.7206783268393455e-02 0.0000000000000000e+00  1.4723076299867210e+00 2.0670507295010968e-01 0.0000000000000000e+00  1.3260549021883372e+00 3.5890652355541680e-01 0.0000000000000000e+00  1.3366352882621939e+00 2.7330999289504904e-01 0.0000000000000000e+00  1.3052684929329590e+00 -5.4965706962288412e-02 0.0000000000000000e+00  1.2576146930544363e+00 -3.1213332414822792e-01 0.0000000000000000e+00  1.3960221335910101e+00 -3.6952042857073142e-01 0.0000000000000000e+00  -2.3351963551226512e-01 8.5377098703221591e-02 0.0000000000000000e+00  1.2421194333094121e+00 3.2554770291027164e-02 0.0000000000000000e+00  -4.6871298134478281e-03 -2.5331229455561634e-03 0.0000000000000000e+00  -5.3569610560775104e-02 1.9052245092561862e-01 0.0000000000000000e+00  7.0630632707155006e-01 5.2994116634897548e-01 0.0000000000000000e+00  3.1399291265060314e-01 9.4675469398494430e-02 0.0000000000000000e+00  1.8643306002554489e+00 -2.3975131508002162e-01 0.0000000000000000e+00  1.2965426230170622e+00 9.8253746553973023e-02 0.0000000000000000e+00  1.4496477142080728e+00 -8.0789221661825405e-03 0.0000000000000000e+00  1.6547859170445045e+00 6.0721898640742111e-01 0.0000000000000000e+00  1.7801199459528672e+00 2.0373435995263059e-01 0.0000000000000000e+00  1.5870480548824168e+00 -1.0628146463736494e-01 0.0000000000000000e+00  8.8888831899002918e-01 -4.6107917404890494e-02 0.0000000000000000e+00  2.0248627325042285e+00 4.3532280630813380e-01 0.0000000000000000e+00  1.8891414405891485e+00 6.4948397795208468e-01 0.0000000000000000e+00  1.5113695356509886e+00 7.9211529307823758e-01 0.0000000000000000e+00  1.1572050452896414e+00 5.8448410389272976e-01 0.0000000000000000e+00  9.4134200350574149e-01 1.3113208697624612e-01 0.0000000000000000e+00  9.7887029805989212e-01 -3.7388817390625190e-01 0.0000000000000000e+00  1.2787305180788657e+00 -6.8134863907961274e-01 0.0000000000000000e+00  1.6328526589413384e+00 -7.0799053874569051e-01 0.0000000000000000e+00  1.8889419883348382e+00 -5.2525589723797772e-01 0.0000000000000000e+00  1.2538484903713392e+00 -3.9668753944908638e-02 0.0000000000000000e+00  1.1279755341061566e+00 -3.8401519763957637e-01 0.0000000000000000e+00  1.2524524789667522e+00 7.3532460252162243e-02 0.0000000000000000e+00  -1.3194151495379114e-01 8.7770547585011821e-02 0.0000000000000000e+00  1.9092027586473659e+00 3.5818673038061194e-01 0.0000000000000000e+00  1.3019652762859319e+00 1.9879193377636675e-01 0.0000000000000000e+00  1.6955679228903817e+00 -2.0036711494472195e-01 0.0000000000000000e+00  1.2190080835117629e+00 -8.6295477136856167e-04 0.0000000000000000e+00  1.2768061882811876e+00 -8.1929088984273018e-03 0.0000000000000000e+00  -7.2590372624527555e-02 2.0587019578433882e-01 0.0000000000000000e+00  1.5020491015502404e+00 -3.3295436337946155e-01 0.0000000000000000e+00  1.2837758553298730e+00 -9.4493562055376401e-02 0.0000000000000000e+00  1.2092251289671929e+00 -1.1031828276421493e-01 0.0000000000000000e+00  1.1334185246501813e+00 -1.5445679501451859e-01 0.0000000000000000e+00  1.1938164521605932e+00 -4.7699046204439662e-02 0.0000000000000000e+00  1.2807762712338089e+00 1.1405479704988246e-02 0.0000000000000000e+00  -8.5726884807095990e-02 1.5054061277258007e-02 0.0000000000000000e+00  1.1696794060019453e+00 5.4925136171491036e-02 0.0000000000000000e+00  1.3797842094756787e+00 -2.0071452309821575e-02 0.0000000000000000e+00  1.0816551311942386e+00 1.7753505658671878e-01 0.0000000000000000e+00  1.4181056991124463e+00 8.4095362801573093e-01 0.0000000000000000e+00  1.7678597788048465e+00 8.7238208263611072e-01 0.0000000000000000e+00  1.2516207758518276e+00 9.6821520991634258e-01 0.0000000000000000e+00  7.6775230671746852e-01 5.4159854162546339e-01 0.0000000000000000e+00  6.4312308764767789e-01 -1.6683941610535180e-01 0.0000000000000000e+00  2.0459291428997362e+00 6.0024199260806355e-01 0.0000000000000000e+00  1.8952779466760774e+00 -3.0079358856207500e-01 0.0000000000000000e+00  1.5311287814866530e+00 2.0975401363219912e-01 0.0000000000000000e+00  9.5371983373746239e-01 -7.7418005495370057e-01 0.0000000000000000e+00  9.9002605432643753e-01 7.1369383028100780e-02 0.0000000000000000e+00  1.3714699749255859e+00 -6.0528401740262789e-03 0.0000000000000000e+00  1.2512767830491487e+00 -1.8643266161168771e-03 0.0000000000000000e+00  1.1923489238748726e+00 4.6828202691119238e-02 0.0000000000000000e+00  2.7960137374418176e-01 5.3725797518125437e-02 0.0000000000000000e+00  -6.2349694580292200e-02 1.8389100823809904e-01 0.0000000000000000e+00  -5.9650417829283514e-02 1.6248030477772898e-01 0.0000000000000000e+00  1.4907930840761094e+00 -1.1886809082838574e-01 0.0000000000000000e+00  1.8450073546223218e+00 1.2285663808938058e-02 0.0000000000000000e+00  -7.5150023250666487e-03 -3.7816433244651587e-02 0.0000000000000000e+00  1.4936216727143470e+00 -1.0257808824008630e+00 0.0000000000000000e+00  1.8645103845303779e+00 -3.4371054922136990e-01 0.0000000000000000e+00  5.7138080119791690e-01 8.2623584040480619e-02 0.0000000000000000e+00  1.2013296546826273e+00 1.2435287500811011e-01 0.0000000000000000e+00  1.6837023002116638e+00 3.9246813493154892e-01 0.0000000000000000e+00  1.3119371587085233e+00 6.3797742468262059e-02 0.0000000000000000e+00  1.2492201171928867e+00 -2.2633424598312465e-02 0.0000000000000000e+00  1.1616223676918205e+00 -5.0461608258342843e-04 0.0000000000000000e+00  4.2842831776671558e-01 -2.9346700871810912e-02 0.0000000000000000e+00  1.6860487345897783e+00 -3.3862701027493258e-01 0.0000000000000000e+00  -5.6547880070074011e-02 -3.0470410641632022e-02 0.0000000000000000e+00  1.5334300733454429e+00 1.1361356427581251e+00 0.0000000000000000e+00  -3.8381273305639826e-02 8.4162880700298370e-02 0.0000000000000000e+00  1.9123606346761703e+00 7.8032314028110605e-01 0.0000000000000000e+00  8.5529883429735432e-01 9.5165416614779175e-01 0.0000000000000000e+00  4.3268544425522704e-01 2.3089726327938087e-01 0.0000000000000000e+00  1.2509795559393124e+00 -1.4864712539990285e-01 0.0000000000000000e+00  1.2682350468771617e+00 -1.9386908402202349e-02 0.0000000000000000e+00  8.5375951882161105e-01 -1.4866022120568981e-01 0.0000000000000000e+00  1.4200190898474845e+00 2.4966722393473595e-01 0.0000000000000000e+00  -5.3822039840094822e-02 1.0678183039538212e-01 0.0000000000000000e+00  5.8720960684532753e-01 -6.0014562671797900e-01 0.0000000000000000e+00  9.5429469903393693e-01 5.6459734200877722e-02 0.0000000000000000e+00  1.9184659029305642e+00 -7.9209975552041734e-01 0.0000000000000000e+00  1.1655683734899500e+00 5.0579052128766839e-03 0.0000000000000000e+00  3.0489974453130120e-01 2.8970043334144411e-02 0.0000000000000000e+00  -3.9051026583117532e-01 -3.3390485890411076e-01 0.0000000000000000e+00  1.4305259472796292e+00 -4.5973095295916155e-01 0.0000000000000000e+00  1.1475944596255852e+00 -1.0651751314341673e+00 0.0000000000000000e+00  1.3178546257956283e+00 -1.2574439884932020e-01 0.0000000000000000e+00  8.8145474020252323e-01 -1.0661640210468791e-01 0.0000000000000000e+00  1.2615423361426774e+00 -1.6644179509059506e-03 0.0000000000000000e+00  7.0059490335063324e-01 -5.6732338834316977e-02 0.0000000000000000e+00  1.0387499896359433e-02 -4.2233706966132670e-02 0.0000000000000000e+00  1.4006519957380617e+00 5.4307288565277209e-02 0.0000000000000000e+00  1.7694485809788478e+00 -5.0963327225395705e-01 0.0000000000000000e+00  1.0654330111862929e+00 1.2614236775935480e-02 0.0000000000000000e+00  1.7485996088824400e+00 -9.8739015509110228e-01 0.0000000000000000e+00  1.1003391835945295e+00 -4.2693928949904970e-03 0.0000000000000000e+00  1.4733815457440613e+00 8.5826512622795160e-03 0.0000000000000000e+00  9.5404562027777562e-01 -1.3271885881901813e-01 0.0000000000000000e+00  1.4153099448641431e+00 9.8742281522706726e-02 0.0000000000000000e+00  1.0411763357676411e+00 1.6186503953468989e-01 0.0000000000000000e+00  -1.4827282183881313e-01 1.5956164288786839e-01 0.0000000000000000e+00  1.0935587350752967e+00 -1.8470363568018854e-04 0.0000000000000000e+00  1.3732353338124719e+00 4.4985173011067708e-01 0.0000000000000000e+00  1.3222343834628638e+00 -8.0995805313705649e-02 0.0000000000000000e+00  1.2737857983763645e+00 1.8466609151028271e-01 0.0000000000000000e+00  1.3213456366727450e+00 -6.1951379892861549e-02 0.0000000000000000e+00  1.3050304766638401e+00 1.2256123851817385e-01 0.0000000000000000e+00  1.5627763899719063e+00 4.2819228357658656e-01 0.0000000000000000e+00  8.5223161209235210e-01 1.2219640458627145e-02 0.0000000000000000e+00  2.0078622686469640e+00 -1.6070534845995033e-01 0.0000000000000000e+00  -5.4109531941012153e-02 1.7686359176202057e-01 0.0000000000000000e+00  1.2225313526020700e+00 1.1854890322421091e-02 0.0000000000000000e+00  1.5945108255463916e+00 4.0834714233095915e-01 0.0000000000000000e+00  1.4681569506696905e+00 2.3322486751234418e-02 0.0000000000000000e+00  1.2278457697863228e+00 -3.5502506258323779e-01 0.0000000000000000e+00  1.0429795645483970e+00 -9.0407352875046913e-03 0.0000000000000000e+00  1.6895613332381294e+00 -1.3035740519640912e-01 0.0000000000000000e+00  1.4805249164064525e+00 8.6708588033367534e-02 0.0000000000000000e+00  1.6158684619334891e+00 -4.4780534655058553e-02 0.0000000000000000e+00  2.4149500773070008e-02 1.8316595769485064e-01 0.0000000000000000e+00  1.2642044850366976e+00 -3.0131318475444324e-01 0.0000000000000000e+00  1.4277401589285341e+00 -7.4364587166602725e-01 0.0000000000000000e+00  1.3687931853486361e+00 8.4797216465618983e-02 0.0000000000000000e+00  9.5930753530249568e-01 3.5121870634311450e-02 0.0000000000000000e+00  1.3548713312448528e+00 1.2084490516924698e-01 0.0000000000000000e+00  8.7610865296165197e-01 4.4652810552040616e-02 0.0000000000000000e+00  1.3578999085481611e+00 -2.1598668261663742e-01 0.0000000000000000e+00  1.9124746412861335e+00 2.0142860605829768e-01 0.0000000000000000e+00  8.5187416990046416e-01 1.4413065031555736e-01 0.0000000000000000e+00  1.0529407913955415e+00 -2.3074745894772367e-01 0.0000000000000000e+00  9.4159248953811026e-01 -1.5291682060956777e-01 0.0000000000000000e+00  -3.5224767318982275e-01 -2.3718720529942489e-03 0.0000000000000000e+00  -1.4090592119000225e-01 1.5051775779663118e-01 0.0000000000000000e+00  1.0131726225202460e+00 -1.6573749243584404e-03 0.0000000000000000e+00  9.6830230919054106e-01 -7.8439133280424353e-04 0.0000000000000000e+00  1.0905938920652467e+00 1.7867606131065050e-01 0.0000000000000000e+00  1.4060165973515202e+00 -2.3225986160718502e-02 0.0000000000000000e+00  -3.3673977348522906e-02 -1.3222899102594721e-01 0.0000000000000000e+00  9.1649412482929138e-01 4.0340142764804944e-02 0.0000000000000000e+00  1.2429013379409217e+00 -6.1042515300250899e-02 0.0000000000000000e+00  8.9055714488994808e-01 6.9713107162789039e-04 0.0000000000000000e+00  -2.9504689360154324e-02 2.5985761470946278e-02 0.0000000000000000e+00  8.2705295852776062e-01 7.2739687065996511e-02 0.0000000000000000e+00  8.6377908050277263e-01 -6.3616683211765571e-02 0.0000000000000000e+00  1.1108684813570477e+00 1.1587339628541244e+00 0.0000000000000000e+00  1.6872379345939081e+00 9.7320255813840528e-01 0.0000000000000000e+00  4.5939960036766536e-01 6.8095367942187002e-01 0.0000000000000000e+00  3.0218860898398370e-01 -2.1861560966826232e-01 0.0000000000000000e+00  7.5214515812969562e-01 1.7463600194938637e-02 0.0000000000000000e+00  -3.4804949605289258e-02 5.8189123797218127e-02 0.0000000000000000e+00  1.4322800902416828e+00 3.7363124992312124e-01 0.0000000000000000e+00  -5.4412125668126470e-02 -4.9941494762068134e-02 0.0000000000000000e+00  -2.4771412366365621e-02 1.7882249977263967e-02 0.0000000000000000e+00  1.2598058295476844e+00 -5.1062289975249524e-03 0.0000000000000000e+00  1.2317956267572108e+00 -4.8902247520274389e-03 0.0000000000000000e+00  7.3177782867136798e-01 -9.6241644508518309e-01 0.0000000000000000e+00  1.1919353008395692e+00 2.0248981831640527e-03 0.0000000000000000e+00  6.1296196801348579e-01 5.4806041114853488e-02 0.0000000000000000e+00  6.1785866858458460e-01 -4.1879742751965598e-02 0.0000000000000000e+00  6.3206194524637671e-01 4.8326679622514067e-03 0.0000000000000000e+00  1.3699912640125249e+00 -4.5983159994097994e-01 0.0000000000000000e+00  6.3335247001318673e-01 7.4271528183445790e-01 0.0000000000000000e+00  4.7203712955462673e-01 2.7650596424761548e-02 0.0000000000000000e+00  8.0207284081926766e-01 -1.2105930269905293e-02 0.0000000000000000e+00  -1.4095592117990027e-01 3.0732800363446236e-02 0.0000000000000000e+00  9.6930305809375361e-01 6.1733381523215866e-05 0.0000000000000000e+00  1.5844145663422571e+00 1.5057214612050784e-01 0.0000000000000000e+00  8.0913679567331864e-01 -2.6981858367157600e-02 0.0000000000000000e+00  1.8650772385947267e+00 1.3086675478598264e-01 0.0000000000000000e+00  1.4587467610160081e+00 -4.9982912839853016e-03 0.0000000000000000e+00  1.5904690066239398e+00 5.9419116459497712e-01 0.0000000000000000e+00  9.1589445261205826e-01 -1.6122186259952923e-01 0.0000000000000000e+00  1.1760812894356156e+00 4.8580074226652883e-03 0.0000000000000000e+00  1.3222867782114145e+00 -1.1950747391835340e-02 0.0000000000000000e+00  1.2169012391833660e+00 6.5001054095554428e-02 0.0000000000000000e+00  1.1968777492265876e+00 -6.9902820796843568e-02 0.0000000000000000e+00  1.1688928297492853e+00 -1.9410843049019209e-02 0.0000000000000000e+00  1.0840017022898987e+00 7.0661537537744937e-03 0.0000000000000000e+00  1.0157914408043958e+00 7.3017819140804671e-02 0.0000000000000000e+00  1.3065750207017439e+00 -2.1930465679562228e-01 0.0000000000000000e+00  1.0922111317145551e+00 1.4729864787345082e-02 0.0000000000000000e+00  1.1811697596611757e+00 1.565975