<?xml version="1.0"?>
<VTKFile type="UnstructuredGrid"  version="0.1"  >
<UnstructuredGrid>
<Piece  NumberOfPoints="3852" NumberOfCells="7360">
<Points>
<DataArray  type="Float64"  NumberOfComponents="3"  format="ascii">0 0 0  0 0.41 0  2.2 0.41 0  2.2 0 0  0.2 0.15 0  0.15 0.2 0  0.2 0.25 0  0.25 0.2 0  0.2097545161007899 0.1509607359798352 0  0.219134171618224 0.153806023374423 0  0.2277785116509268 0.1584265193848371 0  0.2353553390592504 0.1646446609405956 0  0.2415734806150793 0.1722214883489481 0  0.2461939766255306 0.1808658283816641 0  0.249039264020151 0.1902454838991403 0  0.2490392640201666 0.2097545161007811 0  0.2461939766255869 0.2191341716182 0  0.2415734806151802 0.2277785116509009 0  0.2353553390594108 0.235355339059244 0  0.2277785116510524 0.2415734806150789 0  0.2191341716182962 0.2461939766255471 0  0.209754516100834 0.2490392640201561 0  0.1902454838992189 0.2490392640201666 0  0.1808658283818 0.2461939766255869 0  0.1722214883490991 0.2415734806151802 0  0.164644660940756 0.2353553390594108 0  0.1584265193849211 0.2277785116510524 0  0.1538060233744529 0.2191341716182962 0  0.150960735979844 0.209754516100834 0  0.1509607359798352 0.1902454838992101 0  0.153806023374423 0.180865828381776 0  0.1584265193848371 0.1722214883490732 0  0.1646446609405956 0.1646446609407496 0  0.1722214883489481 0.1584265193849207 0  0.1808658283816641 0.1538060233744694 0  0.1902454838991403 0.150960735979849 0  0.09999999999980318 0 0  0.1999999999996354 0 0  0.2999999999994593 0 0  0.3999999999991452 0 0  0.4999999999988309 0 0  0.599999999998495 0 0  0.6999999999982023 0 0  0.7999999999979096 0 0  0.8999999999975735 0 0  0.9999999999972848 0 0  1.099999999997053 0 0  1.199999999997309 0 0  1.299999999997566 0 0  1.399999999997821 0 0  1.49999999999809 0 0  1.599999999998377 0 0  1.69999999999859 0 0  1.799999999998877 0 0  1.899999999999145 0 0  1.999999999999386 0 0  2.099999999999693 0 0  2.2 0.08199999999981657 0  2.2 0.1639999999995688 0  2.2 0.2459999999995603 0  2.2 0.327999999999785 0  2.100000000000048 0.41 0  2.000000000000269 0.41 0  1.900000000000422 0.41 0  1.800000000000679 0.41 0  1.700000000000931 0.41 0  1.600000000001326 0.41 0  1.500000000001665 0.41 0  1.400000000002032 0.41 0  1.300000000002395 0.41 0  1.200000000002644 0.41 0  1.100000000002865 0.41 0  1.000000000002617 0.41 0  0.900000000002368 0.41 0  0.8000000000021192 0.41 0  0.7000000000018587 0.41 0  0.6000000000015786 0.41 0  0.5000000000013736 0.41 0  0.4000000000010933 0.41 0  0.3000000000008329 0.41 0  0.2000000000005997 0.41 0  0.1000000000003003 0.41 0  0 0.3280000000001975 0  0 0.2460000000004372 0  0 0.1640000000004437 0  0 0.08200000000021695 0  0.439039350479032 0.2235433210862024 0  0.3557293424662716 0.1539377961885917 0  0.3450132387946972 0.2399891502764809 0  0.2900756359792848 0.08507884665974728 0  0.2884413411145515 0.3059878288466324 0  0.2102195502178943 0.3385267178242456 0  0.137328909169326 0.3152847369018352 0  0.08490385663776813 0.2628976192695439 0  0.08063302347471875 0.188368977740952 0  0.1005937615311739 0.1162460982751979 0  0.1621860847198582 0.08598327887900903 0  0.3012864586130264 0.1926027915888804 0  1.999140000000448 0.2049999999995642 0  0.2742354912953259 0.1572259708446958 0  0.2871471664627305 0.2264358039321654 0  0.6542851578645765 0.1981889790488746 0  0.2651366296338276 0.2534562504463119 0  0.2371819217149928 0.0977949043027586 0  1.651678197071202 0.2145186615851206 0  1.349674714201118 0.2086119645070391 0  0.9627539291831038 0.2056711800839285 0  0.2360880502985623 0.2733043913425156 0  1.159884231859056 0.2050429640239795 0  0.2502927927237266 0.1358797630898622 0  0.2080582834123368 0.2835355213895352 0  0.1805439632603489 0.278338480667804 0  0.1486243506827335 0.2626014098227327 0  0.1266658889266303 0.2392753516137401 0  0.1179814841582247 0.2069380844236527 0  0.1225167704961566 0.1764957192948648 0  0.1357996569043286 0.1472158045151807 0  0.1619764829264572 0.126298308975886 0  0.1935640279204225 0.116654032325456 0  1.82457000000085 0.2346439024393236 0  0.8027657238591595 0.149277802568535 0  1.498563450727992 0.2632867809910664 0  0.2770405925201826 0.1924926016722167 0  0.470924801584011 0.09138612536042019 0  0.550693598792917 0.2898604497866635 0  0.381089831438127 0.3238078833671811 0  2.074516462495042 0.125705772324225 0  2.083599037046577 0.2769549245607841 0  0.2692296340100125 0.2210592970306522 0  0.7614733075682367 0.2839235561638241 0  1.536698221979284 0.1258192462655419 0  1.231809489345021 0.1282542717942667 0  1.054759157670174 0.1242749934189342 0  1.754535566851005 0.1223197024158991 0  1.90452621597739 0.1324728094649104 0  0.2672409321155211 0.178737994598723 0  1.254401531996246 0.2902808614622134 0  1.04350934597445 0.2986664252663559 0  0.0749710792305778 0.3208721925318313 0  0.5425289614095572 0.165152457827861 0  0.1663208394680799 0.2644065126118989 0  0.1471335176887868 0.2433864007787126 0  0.1345556779484054 0.219852318055334 0  0.131940483167677 0.1932967226753857 0  0.1941574795820069 0.2685534232066453 0  0.2226696214021025 0.1252682734732412 0  0.2193882214552426 0.2661718674478616 0  0.1396865053227576 0.1677617654469802 0  0.8749487631478475 0.295170577255529 0  1.424301820545763 0.1157348858866879 0  1.918515045506933 0.2902236143624367 0  1.744876807925144 0.306628844405037 0  0.2443979144126529 0.254353837216211 0  0.2569054246570621 0.2306780201523878 0  0.2632507216716993 0.2062296523407826 0  0.4609453431326088 0.3138128990490959 0  0.3578015395476809 0.08253318517696946 0  0.2529777826635333 0.155582948480283 0  0.1580369715200277 0.1487041474358234 0  0.652872088668587 0.3101079993636056 0  0.297147332491062 0.2558065812325378 0  0.6188247313471635 0.1101603945467571 0  0.8951149554961688 0.1123812542864208 0  1.592749166085722 0.2985190085719691 0  1.40420309431358 0.2992155383468256 0  1.649189110727275 0.1000387439201274 0  0.2301663900864273 0.1432830242131801 0  0.2064839406544439 0.1345771465164309 0  0.2548204572493643 0.1702022465417566 0  0.1606700828011604 0.2481621709908606 0  0.2605987457303776 0.1928909671966518 0  0.1826942838524941 0.2594610608897559 0  0.1456438338561037 0.2290651013631561 0  0.1387681034994896 0.2058679665896095 0  1.140902260384949 0.3081952438204152 0  2.123402621966431 0.2039515281261525 0  0.7272188829630218 0.1047469619375249 0  0.2060868819369127 0.2616331638469837 0  0.246763614216289 0.2411610007697902 0  0.1405961691450822 0.1819800466423126 0  1.149638048863541 0.08264492713269313 0  0.1809997740285721 0.1365020267363126 0  1.993198408221569 0.09755938404998035 0  0.2287111352430851 0.2547015941619741 0  0.3818716699056283 0.2060398770290832 0  0.39147508084147 0.2656155699545688 0  0.151201080877373 0.1608659990301362 0  0.0542521118046473 0.1382221876243976 0  0.06190301158313444 0.0685934933767465 0  1.317316039400266 0.1015983144534349 0  0.2176417279723976 0.1415790407114221 0  0.2401571300978209 0.1529210337009423 0  0.2618092962776011 0.3566662607419938 0  0.1941527094396574 0.1377969918002053 0  0.9590486261329707 0.3255353063371385 0  0.1708201090411339 0.1447474051814825 0  1.837592370686806 0.3302992722413595 0  0.3197015570210796 0.1212159119695666 0  0.4155281956943757 0.1409543952531078 0  0.0549491513262805 0.2307535706287103 0  0.1668210562270142 0.3605647861782867 0  0.2854688902460447 0.2093700809023571 0  2.013251581901814 0.3292746985146142 0  0.1192191106244758 0.2809901915857802 0  0.2487958366614321 0.04556523514103697 0  0.09061021186838321 0.2240174335271237 0  1.737143840576958 0.20912817770623 0  0.04515017012776967 0.2784708690411318 0  0.5347554646753627 0.08988970780599832 0  0.977104673723579 0.08241628541188413 0  0.336509991617897 0.2888965225844298 0  0.2569238041969055 0.2173711314485607 0  1.906541186051535 0.2125389476829634 0  0.1762338839607841 0.3102437166134606 0  1.449268841077636 0.201011295143529 0  0.8555371485878378 0.2099663446585434 0  1.837208236203613 0.07556229833764837 0  1.264402545318887 0.1992523923163096 0  1.068181074047183 0.2155119107017876 0  0.3158931250274742 0.3421721218291775 0  0.2731958384900449 0.2373435058667565 0  0.09875906484220501 0.1533097574901186 0  0.7355755433976705 0.2066339904079041 0  1.567440499207928 0.2049999999995983 0  1.329829828222916 0.3295825481537897 0  0.8214190147401245 0.07894167681990104 0  1.525459989258997 0.3394220200696043 0  0.1990897327079506 0.06300531675246424 0  0.244701762210989 0.3062404318132603 0  0.1033853772622983 0.3551443431224104 0  0.1178236825374896 0.07148041782551597 0  0.1558198999929474 0.04409380269139784 0  0.3389178979413869 0.198678920661321 0  0.310790717645908 0.2196004930752872 0  2.125022007676643 0.3402049371791425 0  2.130028889485561 0.06535501282233655 0  0.4821161335597635 0.1626909543876269 0  0.2838678108956019 0.1254276466262967 0  0.5062815929260498 0.2376271077316994 0  1.663059277092996 0.3422301118688678 0  1.82292665764828 0.1574809263836269 0  2.052538557905295 0.05717536030732174 0  0.3078251537889645 0.16056368457456 0  0.8108267070172145 0.3390047366820738 0  1.487254632568403 0.0703866281621833 0  0.155004430757041 0.2369517702015699 0  0.1725545045705267 0.2519594403466565 0  0.1445581653510352 0.2167994984574706 0  0.1420710285613199 0.1942747855116325 0  1.461861739291679 0.3471998553985149 0  0.2372128969196007 0.2453440460936858 0  0.1943665918892754 0.2580518465884657 0  0.2452139232912363 0.1629124725160763 0  0.2555786751481889 0.1825885041235872 0  2.14640473333793 0.2790222779730848 0  2.145589594789407 0.1282024626544199 0  0.1486651579751984 0.1726583296292201 0  0.550000000001476 0.3603327897285098 0  0.0505668771231032 0.3660023622363767 0  1.049999999997169 0.05217028468202135 0  1.244771793631775 0.05744029386223062 0  0.1356759337238615 0.1094447816941579 0  0.5872326411628903 0.2223148728195226 0  0.2168458206248643 0.2558159203714847 0  1.749999999998732 0.05166028789524129 0  0.2855257256666041 0.1763246086558152 0  1.92
[...]
<PointData  Vectors="f_22"> 
<DataArray  type="Float64"  Name="f_22"  NumberOfComponents="3" format="ascii">0.0000000000000000e+00 0.0000000000000000e+00 0.0000000000000000e+00  0.0000000000000000e+00 0.0000000000000000e+00 0.0000000000000000e+00  0.0000000000000000e+00 0.0000000000000000e+00 0.0000000000000000e+00  0.0000000000000000e+00 0.0000000000000000e+00 0.0000000000000000e+00  0.0000000000000000e+00 0.0000000000000000e+00 0.0000000000000000e+00  0.0000000000000000e+00 0.0000000000000000e+00 0.0000000000000000e+00  0.0000000000000000e+00 0.0000000000000000e+00 0.0000000000000000e+00  0.0000000000000000e+00 0.0000000000000000e+00 0.0000000000000000e+00  0.0000000000000000e+00 0.0000000000000000e+00 0.0000000000000000e+00  0.0000000000000000e+00 0.0000000000000000e+00 0.0000000000000000e+00  0.0000000000000000e+00 0.0000000000000000e+00 0.0000000000000000e+00  0.0000000000000000e+00 0.0000000000000000e+00 0.0000000000000000e+00  0.0000000000000000e+00 0.0000000000000000e+00 0.0000000000000000e+00  0.0000000000000000e+00 0.0000000000000000e+00 0.0000000000000000e+00  0.0000000000000000e+00 0.0000000000000000e+00 0.0000000000000000e+00  0.0000000000000000e+00 0.0000000000000000e+00 0.0000000000000000e+00  0.0000000000000000e+00 0.0000000000000000e+00 0.0000000000000000e+00  0.0000000000000000e+00 0.0000000000000000e+00 0.0000000000000000e+00  0.0000000000000000e+00 0.0000000000000000e+00 0.0000000000000000e+00  0.0000000000000000e+00 0.0000000000000000e+00 0.0000000000000000e+00  0.0000000000000000e+00 0.0000000000000000e+00 0.0000000000000000e+00  0.0000000000000000e+00 0.0000000000000000e+00 0.0000000000000000e+00  0.0000000000000000e+00 0.0000000000000000e+00 0.0000000000000000e+00  0.0000000000000000e+00 0.0000000000000000e+00 0.0000000000000000e+00  0.0000000000000000e+00 0.0000000000000000e+00 0.0000000000000000e+00  0.0000000000000000e+00 0.0000000000000000e+00 0.0000000000000000e+00  0.0000000000000000e+00 0.0000000000000000e+00 0.0000000000000000e+00  0.0000000000000000e+00 0.0000000000000000e+00 0.0000000000000000e+00  0.0000000000000000e+00 0.0000000000000000e+00 0.0000000000000000e+00  0.0000000000000000e+00 0.0000000000000000e+00 0.0000000000000000e+00  0.0000000000000000e+00 0.0000000000000000e+00 0.0000000000000000e+00  0.0000000000000000e+00 0.0000000000000000e+00 0.0000000000000000e+00  0.0000000000000000e+00 0.0000000000000000e+00 0.0000000000000000e+00  0.0000000000000000e+00 0.0000000000000000e+00 0.0000000000000000e+00  0.0000000000000000e+00 0.0000000000000000e+00 0.0000000000000000e+00  0.0000000000000000e+00 0.0000000000000000e+00 0.0000000000000000e+00  0.0000000000000000e+00 0.0000000000000000e+00 0.0000000000000000e+00  0.0000000000000000e+00 0.0000000000000000e+00 0.0000000000000000e+00  0.0000000000000000e+00 0.0000000000000000e+00 0.0000000000000000e+00  0.0000000000000000e+00 0.0000000000000000e+00 0.0000000000000000e+00  0.0000000000000000e+00 0.0000000000000000e+00 0.0000000000000000e+00  0.0000000000000000e+00 0.0000000000000000e+00 0.0000000000000000e+00  0.0000000000000000e+00 0.0000000000000000e+00 0.0000000000000000e+00  0.0000000000000000e+00 0.0000000000000000e+00 0.0000000000000000e+00  0.0000000000000000e+00 0.0000000000000000e+00 0.0000000000000000e+00  0.0000000000000000e+00 0.0000000000000000e+00 0.0000000000000000e+00  0.0000000000000000e+00 0.0000000000000000e+00 0.0000000000000000e+00  0.0000000000000000e+00 0.0000000000000000e+00 0.0000000000000000e+00  0.0000000000000000e+00 0.0000000000000000e+00 0.0000000000000000e+00  0.0000000000000000e+00 0.0000000000000000e+00 0.0000000000000000e+00  0.0000000000000000e+00 0.0000000000000000e+00 0.0000000000000000e+00  0.0000000000000000e+00 0.0000000000000000e+00 0.0000000000000000e+00  0.0000000000000000e+00 0.0000000000000000e+00 0.0000000000000000e+00  0.0000000000000000e+00 0.0000000000000000e+00 0.0000000000000000e+00  0.0000000000000000e+00 0.0000000000000000e+00 0.0000000000000000e+00  0.0000000000000000e+00 0.0000000000000000e+00 0.0000000000000000e+00  0.0000000000000000e+00 0.0000000000000000e+00 0.0000000000000000e+00  1.0827761919111827e+00 3.2204448287632154e-03 0.0000000000000000e+00  1.2843532341550099e+00 2.5061164839374678e-02 0.0000000000000000e+00  1.2662430554144162e+00 2.0362820934341396e-02 0.0000000000000000e+00  1.0946151438578453e+00 3.1381090215584778e-04 0.0000000000000000e+00  0.0000000000000000e+00 0.0000000000000000e+00 0.0000000000000000e+00  0.0000000000000000e+00 0.0000000000000000e+00 0.0000000000000000e+00  0.0000000000000000e+00 0.0000000000000000e+00 0.0000000000000000e+00  0.0000000000000000e+00 0.0000000000000000e+00 0.0000000000000000e+00  0.0000000000000000e+00 0.0000000000000000e+00 0.0000000000000000e+00  0.0000000000000000e+00 0.0000000000000000e+00 0.0000000000000000e+00  0.0000000000000000e+00 0.0000000000000000e+00 0.0000000000000000e+00  0.0000000000000000e+00 0.0000000000000000e+00 0.0000000000000000e+00  0.0000000000000000e+00 0.0000000000000000e+00 0.0000000000000000e+00  0.0000000000000000e+00 0.0000000000000000e+00 0.0000000000000000e+00  0.0000000000000000e+00 0.0000000000000000e+00 0.0000000000000000e+00  0.0000000000000000e+00 0.0000000000000000e+00 0.0000000000000000e+00  0.0000000000000000e+00 0.0000000000000000e+00 0.0000000000000000e+00  0.0000000000000000e+00 0.0000000000000000e+00 0.0000000000000000e+00  0.0000000000000000e+00 0.0000000000000000e+00 0.0000000000000000e+00  0.0000000000000000e+00 0.0000000000000000e+00 0.0000000000000000e+00  0.0000000000000000e+00 0.0000000000000000e+00 0.0000000000000000e+00  0.0000000000000000e+00 0.0000000000000000e+00 0.0000000000000000e+00  0.0000000000000000e+00 0.0000000000000000e+00 0.0000000000000000e+00  0.0000000000000000e+00 0.0000000000000000e+00 0.0000000000000000e+00  0.0000000000000000e+00 0.0000000000000000e+00 0.0000000000000000e+00  9.6000004657295268e-01 0.0000000000000000e+00 0.0000000000000000e+00  1.4400000698607509e+00 0.0000000000000000e+00 0.0000000000000000e+00  1.4400000698633293e+00 0.0000000000000000e+00 0.0000000000000000e+00  9.6000004657659199e-01 0.0000000000000000e+00 0.0000000000000000e+00  -8.9553959952730355e-02 6.6347613272959938e-01 0.0000000000000000e+00  8.0556537147038121e-01 6.5735706339338146e-02 0.0000000000000000e+00  -9.0819112805142793e-02 -1.3259934918442470e-01 0.0000000000000000e+00  1.8688545996554424e+00 -9.2848678645599432e-03 0.0000000000000000e+00  1.8839464998122062e+00 5.6005119016652977e-02 0.0000000000000000e+00  1.4334467846599690e+00 1.9815647951455936e-01 0.0000000000000000e+00  1.3044595952383651e+00 3.3561643740795544e-01 0.0000000000000000e+00  1.3283685677422568e+00 2.4330479124358437e-01 0.0000000000000000e+00  1.3078688315683391e+00 -9.0759929448511717e-02 0.0000000000000000e+00  1.2715872134179362e+00 -3.3848035210656707e-01 0.0000000000000000e+00  1.4258280527496183e+00 -3.8146884916762203e-01 0.0000000000000000e+00  -1.7956894756381395e-01 -2.6446920551036507e-01 0.0000000000000000e+00  1.3033093498076884e+00 -7.2661794552198622e-02 0.0000000000000000e+00  1.1769972058141573e-01 -1.8101578563339649e-01 0.0000000000000000e+00  -1.6876966946822400e-01 -1.0921942427604969e-01 0.0000000000000000e+00  1.1051013762036235e+00 -6.2224904524641622e-01 0.0000000000000000e+00  2.9471047996576616e-01 -9.7957995777853257e-03 0.0000000000000000e+00  1.9103819243385864e+00 -2.2033203710895699e-01 0.0000000000000000e+00  1.3855185766752689e+00 -3.3793909773078709e-02 0.0000000000000000e+00  1.4997180055936359e+00 -6.9149171803592036e-02 0.0000000000000000e+00  1.6217639816678655e+00 -7.0071037233724942e-01 0.0000000000000000e+00  1.7522574106543238e+00 1.7979117653970267e-01 0.0000000000000000e+00  1.6684607923164099e+00 -6.2200739669586558e-02 0.0000000000000000e+00  9.7220610625945303e-01 -6.5112596220994856e-02 0.0000000000000000e+00  1.9873102782042937e+00 4.1582061935090109e-01 0.0000000000000000e+00  1.8531274043703232e+00 6.2366370130611148e-01 0.0000000000000000e+00  1.4813661241687615e+00 7.5252686630350674e-01 0.0000000000000000e+00  1.1389605694231386e+00 5.3427479213479490e-01 0.0000000000000000e+00  9.3855235528804759e-01 7.4981496091742317e-02 0.0000000000000000e+00  9.9245015639643130e-01 -4.2877768151732559e-01 0.0000000000000000e+00  1.3073021097686108e+00 -7.2525733894435684e-01 0.0000000000000000e+00  1.6739808344069977e+00 -7.3458638648509955e-01 0.0000000000000000e+00  1.9373865616576191e+00 -5.3136895512453497e-01 0.0000000000000000e+00  1.3147169214257592e+00 1.2547260647753336e-01 0.0000000000000000e+00  1.4287653914602414e+00 3.9049796223934752e-01 0.0000000000000000e+00  1.4190599292388890e+00 -1.2032052479790574e-01 0.0000000000000000e+00  -1.0811590841801627e-01 -2.3032045283423003e-01 0.0000000000000000e+00  1.3143827993978878e+00 1.8262369540131190e-01 0.0000000000000000e+00  1.7652313033701570e+00 -5.8474496451708557e-01 0.0000000000000000e+00  1.7579933308504470e+00 -2.6814491878203985e-02 0.0000000000000000e+00  1.2520784363371134e+00 -2.2715333532887964e-02 0.0000000000000000e+00  1.2782135325075255e+00 -1.3858377895904795e-02 0.0000000000000000e+00  -1.0958978846044359e-01 -6.5839745426768084e-02 0.0000000000000000e+00  7.8376899157691948e-01 3.1990071990314656e-01 0.0000000000000000e+00  1.3289121270894055e+00 -1.6969904471671082e-01 0.0000000000000000e+00  1.2411495240812562e+00 1.3936618778273782e-01 0.0000000000000000e+00  1.3429248360450889e+00 -1.5648204081330511e-01 0.0000000000000000e+00  1.3000704506732248e+00 -1.5065535430659334e-02 0.0000000000000000e+00  1.2149093292864286e+00 2.7726364276554009e-02 0.0000000000000000e+00  -5.4062612610955484e-02 -2.4763747794430691e-01 0.0000000000000000e+00  1.1811298653045430e+00 2.5534816004486877e-01 0.0000000000000000e+00  1.0065106549475065e+00 5.7608499656393947e-02 0.0000000000000000e+00  1.0751790168253819e+00 1.6177665928718374e-01 0.0000000000000000e+00  3.5794730010040504e-01 -8.6597289940825828e-02 0.0000000000000000e+00  1.7317416035074316e+00 8.3892403661110093e-01 0.0000000000000000e+00  1.2213133748739931e+00 9.1849680537610090e-01 0.0000000000000000e+00  7.5298615952845172e-01 4.7956614803645492e-01 0.0000000000000000e+00  6.4914180507391539e-01 -2.3208523754288465e-01 0.0000000000000000e+00  2.0113034317029643e+00 5.7963725352128670e-01 0.0000000000000000e+00  1.9652372973915777e+00 -2.9727480259430528e-01 0.0000000000000000e+00  1.5182796512795080e+00 1.9419309890574535e-01 0.0000000000000000e+00  9.8030651302296357e-01 -8.3174904514806136e-01 0.0000000000000000e+00  1.4646353471503863e+00 3.5323885784067477e-02 0.0000000000000000e+00  1.0746710667136958e+00 4.2105098632830885e-02 0.0000000000000000e+00  1.3425803330393844e+00 4.1345782931040999e-03 0.0000000000000000e+00  1.1203564746577146e+00 6.2986794149225561e-02 0.0000000000000000e+00  3.0859960778542006e-01 2.3674889368935262e-02 0.0000000000000000e+00  -6.9245664583495500e-02 1.9650252121394166e-02 0.0000000000000000e+00  -5.5296446613604805e-02 -1.3505472356688666e-01 0.0000000000000000e+00  1.9182016914161917e+00 -1.9613267724391070e-01 0.0000000000000000e+00  1.7882728477341698e+00 2.3001327099184624e-01 0.0000000000000000e+00  2.6957733249755949e-03 -1.1165680739112963e-01 0.0000000000000000e+00  1.5376852998184962e+00 -1.0679668851716675e+00 0.0000000000000000e+00  1.0575400684053997e+00 -5.9380314790225923e-03 0.0000000000000000e+00  3.9331938965606361e-01 -1.0939181164473044e-01 0.0000000000000000e+00  1.2890062180646935e+00 -2.3454715289050385e-01 0.0000000000000000e+00  6.7332387784967396e-01 1.6395909145238668e-01 0.0000000000000000e+00  1.1521137476835430e+00 7.5785384719979212e-02 0.0000000000000000e+00  1.2930857247069032e+00 -9.9499075979230703e-02 0.0000000000000000e+00  1.2162195060931948e+00 -2.4780888911062875e-02 0.0000000000000000e+00  4.5293537570830067e-01 -3.6583696913938306e-02 0.0000000000000000e+00  1.7508042873923624e+00 -3.4470184215555266e-01 0.0000000000000000e+00  -5.9603546426193116e-02 -1.7412083078076826e-01 0.0000000000000000e+00  1.4961051560318912e+00 1.0946278027317471e+00 0.0000000000000000e+00  -4.3690710082021141e-02 -1.9285822375584410e-01 0.0000000000000000e+00  1.8791847530343537e+00 7.5843075450518194e-01 0.0000000000000000e+00  8.2892951244400936e-01 8.9195006367448271e-01 0.0000000000000000e+00  4.2727828470601414e-01 1.6117744462243905e-01 0.0000000000000000e+00  8.9756591551346421e-01 -1.1766770296126562e-01 0.0000000000000000e+00  1.2455648870174294e+00 -2.5648695663943809e-02 0.0000000000000000e+00  1.6794624716948423e+00 4.7596467678690063e-01 0.0000000000000000e+00  1.4120863975445772e+00 2.3901293540030510e-01 0.0000000000000000e+00  -3.9006558938356049e-02 5.4730478863229369e-02 0.0000000000000000e+00  6.0554464304518985e-01 -6.6713878644492086e-01 0.0000000000000000e+00  1.0298251672534364e+00 8.2316867095300450e-02 0.0000000000000000e+00  1.9734075111485745e+00 -8.1318463146189979e-01 0.0000000000000000e+00  1.1312053015932106e+00 -2.4194505569599206e-02 0.0000000000000000e+00  3.2903761718528446e-01 1.5408461325670338e-02 0.0000000000000000e+00  -4.0463777685154484e-01 1.3826829358593692e-01 0.0000000000000000e+00  7.7410361020426877e-01 5.3415719130593842e-02 0.0000000000000000e+00  1.1855746521553456e+00 -1.1187968519209988e+00 0.0000000000000000e+00  1.3214211055989067e+00 -1.4338706090787859e-01 0.0000000000000000e+00  8.8572939255336347e-01 -1.1611669258684038e-01 0.0000000000000000e+00  1.0739023403473278e+00 3.5640342371096118e-02 0.0000000000000000e+00  7.3588252986971703e-01 -6.1448455250905275e-02 0.0000000000000000e+00  -1.8887703971391225e-03 -5.8755217825128256e-02 0.0000000000000000e+00  1.3568061298457728e+00 6.3577289603633333e-02 0.0000000000000000e+00  1.8284727193217682e+00 -5.2218164290151148e-01 0.0000000000000000e+00  1.0839312567736310e+00 -1.4844830061039332e-01 0.0000000000000000e+00  1.8006391285168659e+00 -1.0197974280977955e+00 0.0000000000000000e+00  1.0469433955857970e+00 4.4733999035640896e-02 0.0000000000000000e+00  1.8562041973458039e+00 8.0730267783739554e-02 0.0000000000000000e+00  1.5211947578592186e+00 7.1345230444592800e-01 0.0000000000000000e+00  1.4133842596566297e+00 7.6535177585944941e-02 0.0000000000000000e+00  1.0124756937704393e+00 1.5245545921002665e-01 0.0000000000000000e+00  -1.8241546438092079e-01 -1.7070142900891710e-01 0.0000000000000000e+00  1.0897751099318664e+00 4.1851009265890275e-03 0.0000000000000000e+00  1.3551532760475420e+00 4.1689260148277574e-01 0.0000000000000000e+00  1.3402746906888836e+00 -5.8027551319230243e-02 0.0000000000000000e+00  1.2688468466720511e+00 1.4475146958198740e-01 0.0000000000000000e+00  1.4024321698995090e+00 6.5324882196717171e-02 0.0000000000000000e+00  1.3026608091299721e+00 1.0907619065229580e-01 0.0000000000000000e+00  1.2604073630501271e+00 -1.3644426032032661e-01 0.0000000000000000e+00  8.1352658173336911e-01 -1.1845992799481959e-01 0.0000000000000000e+00  1.7437949786155438e+00 -4.4821251986295246e-02 0.0000000000000000e+00  -3.5839370712733319e-02 -3.7301750171710682e-02 0.0000000000000000e+00  1.2854562858940255e+00 1.0304897142947797e-01 0.0000000000000000e+00  1.5622935937509379e+00 3.8761708843723125e-01 0.0000000000000000e+00  1.7333587145218583e+00 -1.0916810086233975e-01 0.0000000000000000e+00  1.4116716568567917e+00 3.6989771775253416e-01 0.0000000000000000e+00  1.0078237214409549e+00 -9.8732821658174697e-03 0.0000000000000000e+00  1.6514265453877197e+00 3.8386386949332063e-01 0.0000000000000000e+00  1.3881451290047748e+00 -1.2315598870335465e-01 0.0000000000000000e+00  1.5718404765994856e+00 1.0077274489445434e-02 0.0000000000000000e+00  -7.2137498025075367e-02 -3.2387930197186283e-02 0.0000000000000000e+00  1.2761902626468986e+00 -3.3883244531157786e-01 0.0000000000000000e+00  1.3074471085972998e+00 4.9217922403878966e-01 0.0000000000000000e+00  1.5713897715189891e+00 1.7320091148779377e-02 0.0000000000000000e+00  1.0176937509770034e+00 -2.9714078354624876e-02 0.0000000000000000e+00  8.3700338047829603e-01 -9.1825259385700464e-02 0.0000000000000000e+00  7.9096643019700019e-01 1.2053603957641261e-02 0.0000000000000000e+00  1.3882299950227326e+00 -2.1179906612642938e-01 0.0000000000000000e+00  1.8615203314298132e+00 1.8889410920284627e-01 0.0000000000000000e+00  8.3948659423305305e-01 1.3198195587430997e-01 0.0000000000000000e+00  1.0687883981376944e+00 -2.4541963232807174e-01 0.0000000000000000e+00  9.6442923019798499e-01 -1.5758412960582902e-01 0.0000000000000000e+00  -3.0842219005671601e-01 -2.3785351860563078e-01 0.0000000000000000e+00  -2.6635086990817386e-01 -1.9287903895905967e-01 0.0000000000000000e+00  1.0033668414384944e+00 -2.9070826262353419e-03 0.0000000000000000e+00  9.5781799898915243e-01 9.4921260526976341e-04 0.0000000000000000e+00  5.3532710328193223e-01 6.1231734583036657e-01 0.0000000000000000e+00  1.6136912902272229e+00 -4.6572070605224544e-02 0.0000000000000000e+00  1.2490351034148797e+00 -1.7964392982881339e-01 0.0000000000000000e+00  8.2645354739094379e-01 2.7940260386018739e-02 0.0000000000000000e+00  1.3413631555111607e+00 -5.2026689256230024e-03 0.0000000000000000e+00  8.7442471392443144e-01 -4.2734537815579997e-03 0.0000000000000000e+00  2.5927443490583080e-01 -2.1999622929575446e-01 0.0000000000000000e+00  1.1901048377607240e+00 4.1308276496241060e-02 0.0000000000000000e+00  7.8501215060963814e-01 -4.8179769106461538e-02 0.0000000000000000e+00  1.0774292030268560e+00 1.1098095234586411e+00 0.0000000000000000e+00  1.6534060517882250e+00 9.4621789563642766e-01 0.0000000000000000e+00  4.4182266962264188e-01 6.1489303990712385e-01 0.0000000000000000e+00  3.0893042739415538e-01 -2.8945895650957326e-01 0.0000000000000000e+00  7.0308205969502635e-01 -1.8235606397885660e-02 0.0000000000000000e+00  -1.2390602072463045e-02 4.4251712595941420e-02 0.0000000000000000e+00  1.4209376804011207e+00 3.6450730847280838e-01 0.0000000000000000e+00  -6.6431772602175906e-02 -9.1807869846383380e-02 0.0000000000000000e+00  -4.4920858844186569e-02 -1.7221032281085594e-01 0.0000000000000000e+00  1.2616921465765329e+00 -5.6851632948489899e-03 0.0000000000000000e+00  1.2748076037362648e+00 1.2271599701192876e-02 0.0000000000000000e+00  7.6162144977811985e-01 -1.0237553715825882e+00 0.0000000000000000e+00  8.8371313787201955e-01 -1.6032725700688283e-01 0.0000000000000000e+00  6.1002711018920697e-01 4.9670032377503746e-02 0.0000000000000000e+00  7.8031053429851072e-01 5.5194528761638214e-03 0.0000000000000000e+00  6.8169298049054505e-01 2.1958856069133902e-02 0.0000000000000000e+00  1.3958083884768813e+00 -4.8506598455943573e-01 0.0000000000000000e+00  1.4008361031151009e+00 -8.8149367335926809e-01 0.0000000000000000e+00  4.9031317541567687e-01 1.8941436734473391e-02 0.0000000000000000e+00  7.4441973802917694e-01 -1.7902467267368990e-02 0.0000000000000000e+00  -3.3402964684692039e-02 -2.6106117382244359e-01 0.0000000000000000e+00  9.1987621376974538e-01 -8.4743694302083991e-03 0.0000000000000000e+00  1.2324001905911404e+00 1.8285734285254038e-01 0.0000000000000000e+00  6.8431947228712720e-01 -4.0595820334018103e-02 0.0000000000000000e+00  1.8055433032773927e+00 8.7713015328980001e-02 0.0000000000000000e+00  1.4591220183195404e+00 -2.0143907574027391e-02 0.0000000000000000e+00  1.5612217997040703e+00 5.6365742828192489e-01 0.0000000000000000e+00  9.3573543657663816e-01 1.4266000231184492e-01 0.0000000000000000e+00  1.5291685242285604e+00 -1.6906498759276602e-02 0.0000000000000000e+00  1.3694002262844251e+00 -7.4962253045387617e-02 0.0000000000000000e+00  1.4687594722045747e+00 -4.7185556095206964e-02 0.0000000000000000e+00  1.5439826498832363e+00 9.1703832652984152e-02 0.0000000000000000e+00  1.2940015007243393e+00 -1.1796983128951208e-02 0.0000000000000000e+00  1.1756440804278248e+00 1.2428005774283564e-01 0.0000000000000000e+00  1.6716663772301217e+00 1.9115713830547529e-01 0.0000000000000000e+00  1.8394766473948343e+00 3.8735961957276266e-01 0.0000000000000000e+00  1.4150861298111961e+00 1.1367865493019888e-01 0.0000000000000000e+00  1.5408074434912111e+00 6