<?xml version="1.0"?>
<VTKFile type="UnstructuredGrid"  version="0.1"  >
<UnstructuredGrid>
<Piece  NumberOfPoints="3852" NumberOfCells="7360">
<Points>
<DataArray  type="Float64"  NumberOfComponents="3"  format="ascii">0 0 0  0 0.41 0  2.2 0.41 0  2.2 0 0  0.2 0.15 0  0.15 0.2 0  0.2 0.25 0  0.25 0.2 0  0.2097545161007899 0.1509607359798352 0  0.219134171618224 0.153806023374423 0  0.2277785116509268 0.1584265193848371 0  0.2353553390592504 0.1646446609405956 0  0.2415734806150793 0.1722214883489481 0  0.2461939766255306 0.1808658283816641 0  0.249039264020151 0.1902454838991403 0  0.2490392640201666 0.2097545161007811 0  0.2461939766255869 0.2191341716182 0  0.2415734806151802 0.2277785116509009 0  0.2353553390594108 0.235355339059244 0  0.2277785116510524 0.2415734806150789 0  0.2191341716182962 0.2461939766255471 0  0.209754516100834 0.2490392640201561 0  0.1902454838992189 0.2490392640201666 0  0.1808658283818 0.2461939766255869 0  0.1722214883490991 0.2415734806151802 0  0.164644660940756 0.2353553390594108 0  0.1584265193849211 0.2277785116510524 0  0.1538060233744529 0.2191341716182962 0  0.150960735979844 0.209754516100834 0  0.1509607359798352 0.1902454838992101 0  0.153806023374423 0.180865828381776 0  0.1584265193848371 0.1722214883490732 0  0.1646446609405956 0.1646446609407496 0  0.1722214883489481 0.1584265193849207 0  0.1808658283816641 0.1538060233744694 0  0.1902454838991403 0.150960735979849 0  0.09999999999980318 0 0  0.1999999999996354 0 0  0.2999999999994593 0 0  0.3999999999991452 0 0  0.4999999999988309 0 0  0.599999999998495 0 0  0.6999999999982023 0 0  0.7999999999979096 0 0  0.8999999999975735 0 0  0.9999999999972848 0 0  1.099999999997053 0 0  1.199999999997309 0 0  1.299999999997566 0 0  1.399999999997821 0 0  1.49999999999809 0 0  1.599999999998377 0 0  1.69999999999859 0 0  1.799999999998877 0 0  1.899999999999145 0 0  1.999999999999386 0 0  2.099999999999693 0 0  2.2 0.08199999999981657 0  2.2 0.1639999999995688 0  2.2 0.2459999999995603 0  2.2 0.327999999999785 0  2.100000000000048 0.41 0  2.000000000000269 0.41 0  1.900000000000422 0.41 0  1.800000000000679 0.41 0  1.700000000000931 0.41 0  1.600000000001326 0.41 0  1.500000000001665 0.41 0  1.400000000002032 0.41 0  1.300000000002395 0.41 0  1.200000000002644 0.41 0  1.100000000002865 0.41 0  1.000000000002617 0.41 0  0.900000000002368 0.41 0  0.8000000000021192 0.41 0  0.7000000000018587 0.41 0  0.6000000000015786 0.41 0  0.5000000000013736 0.41 0  0.4000000000010933 0.41 0  0.3000000000008329 0.41 0  0.2000000000005997 0.41 0  0.1000000000003003 0.41 0  0 0.3280000000001975 0  0 0.2460000000004372 0  0 0.1640000000004437 0  0 0.08200000000021695 0  0.439039350479032 0.2235433210862024 0  0.3557293424662716 0.1539377961885917 0  0.3450132387946972 0.2399891502764809 0  0.2900756359792848 0.08507884665974728 0  0.2884413411145515 0.3059878288466324 0  0.2102195502178943 0.3385267178242456 0  0.137328909169326 0.3152847369018352 0  0.08490385663776813 0.2628976192695439 0  0.08063302347471875 0.188368977740952 0  0.1005937615311739 0.1162460982751979 0  0.1621860847198582 0.08598327887900903 0  0.3012864586130264 0.1926027915888804 0  1.999140000000448 0.2049999999995642 0  0.2742354912953259 0.1572259708446958 0  0.2871471664627305 0.2264358039321654 0  0.6542851578645765 0.1981889790488746 0  0.2651366296338276 0.2534562504463119 0  0.2371819217149928 0.0977949043027586 0  1.651678197071202 0.2145186615851206 0  1.349674714201118 0.2086119645070391 0  0.9627539291831038 0.2056711800839285 0  0.2360880502985623 0.2733043913425156 0  1.159884231859056 0.2050429640239795 0  0.2502927927237266 0.1358797630898622 0  0.2080582834123368 0.2835355213895352 0  0.1805439632603489 0.278338480667804 0  0.1486243506827335 0.2626014098227327 0  0.1266658889266303 0.2392753516137401 0  0.1179814841582247 0.2069380844236527 0  0.1225167704961566 0.1764957192948648 0  0.1357996569043286 0.1472158045151807 0  0.1619764829264572 0.126298308975886 0  0.1935640279204225 0.116654032325456 0  1.82457000000085 0.2346439024393236 0  0.8027657238591595 0.149277802568535 0  1.498563450727992 0.2632867809910664 0  0.2770405925201826 0.1924926016722167 0  0.470924801584011 0.09138612536042019 0  0.550693598792917 0.2898604497866635 0  0.381089831438127 0.3238078833671811 0  2.074516462495042 0.125705772324225 0  2.083599037046577 0.2769549245607841 0  0.2692296340100125 0.2210592970306522 0  0.7614733075682367 0.2839235561638241 0  1.536698221979284 0.1258192462655419 0  1.231809489345021 0.1282542717942667 0  1.054759157670174 0.1242749934189342 0  1.754535566851005 0.1223197024158991 0  1.90452621597739 0.1324728094649104 0  0.2672409321155211 0.178737994598723 0  1.254401531996246 0.2902808614622134 0  1.04350934597445 0.2986664252663559 0  0.0749710792305778 0.3208721925318313 0  0.5425289614095572 0.165152457827861 0  0.1663208394680799 0.2644065126118989 0  0.1471335176887868 0.2433864007787126 0  0.1345556779484054 0.219852318055334 0  0.131940483167677 0.1932967226753857 0  0.1941574795820069 0.2685534232066453 0  0.2226696214021025 0.1252682734732412 0  0.2193882214552426 0.2661718674478616 0  0.1396865053227576 0.1677617654469802 0  0.8749487631478475 0.295170577255529 0  1.424301820545763 0.1157348858866879 0  1.918515045506933 0.2902236143624367 0  1.744876807925144 0.306628844405037 0  0.2443979144126529 0.254353837216211 0  0.2569054246570621 0.2306780201523878 0  0.2632507216716993 0.2062296523407826 0  0.4609453431326088 0.3138128990490959 0  0.3578015395476809 0.08253318517696946 0  0.2529777826635333 0.155582948480283 0  0.1580369715200277 0.1487041474358234 0  0.652872088668587 0.3101079993636056 0  0.297147332491062 0.2558065812325378 0  0.6188247313471635 0.1101603945467571 0  0.8951149554961688 0.1123812542864208 0  1.592749166085722 0.2985190085719691 0  1.40420309431358 0.2992155383468256 0  1.649189110727275 0.1000387439201274 0  0.2301663900864273 0.1432830242131801 0  0.2064839406544439 0.1345771465164309 0  0.2548204572493643 0.1702022465417566 0  0.1606700828011604 0.2481621709908606 0  0.2605987457303776 0.1928909671966518 0  0.1826942838524941 0.2594610608897559 0  0.1456438338561037 0.2290651013631561 0  0.1387681034994896 0.2058679665896095 0  1.140902260384949 0.3081952438204152 0  2.123402621966431 0.2039515281261525 0  0.7272188829630218 0.1047469619375249 0  0.2060868819369127 0.2616331638469837 0  0.246763614216289 0.2411610007697902 0  0.1405961691450822 0.1819800466423126 0  1.149638048863541 0.08264492713269313 0  0.1809997740285721 0.1365020267363126 0  1.993198408221569 0.09755938404998035 0  0.2287111352430851 0.2547015941619741 0  0.3818716699056283 0.2060398770290832 0  0.39147508084147 0.2656155699545688 0  0.151201080877373 0.1608659990301362 0  0.0542521118046473 0.1382221876243976 0  0.06190301158313444 0.0685934933767465 0  1.317316039400266 0.1015983144534349 0  0.2176417279723976 0.1415790407114221 0  0.2401571300978209 0.1529210337009423 0  0.2618092962776011 0.3566662607419938 0  0.1941527094396574 0.1377969918002053 0  0.9590486261329707 0.3255353063371385 0  0.1708201090411339 0.1447474051814825 0  1.837592370686806 0.3302992722413595 0  0.3197015570210796 0.1212159119695666 0  0.4155281956943757 0.1409543952531078 0  0.0549491513262805 0.2307535706287103 0  0.1668210562270142 0.3605647861782867 0  0.2854688902460447 0.2093700809023571 0  2.013251581901814 0.3292746985146142 0  0.1192191106244758 0.2809901915857802 0  0.2487958366614321 0.04556523514103697 0  0.09061021186838321 0.2240174335271237 0  1.737143840576958 0.20912817770623 0  0.04515017012776967 0.2784708690411318 0  0.5347554646753627 0.08988970780599832 0  0.977104673723579 0.08241628541188413 0  0.336509991617897 0.2888965225844298 0  0.2569238041969055 0.2173711314485607 0  1.906541186051535 0.2125389476829634 0  0.1762338839607841 0.3102437166134606 0  1.449268841077636 0.201011295143529 0  0.8555371485878378 0.2099663446585434 0  1.837208236203613 0.07556229833764837 0  1.264402545318887 0.1992523923163096 0  1.068181074047183 0.2155119107017876 0  0.3158931250274742 0.3421721218291775 0  0.2731958384900449 0.2373435058667565 0  0.09875906484220501 0.1533097574901186 0  0.7355755433976705 0.2066339904079041 0  1.567440499207928 0.2049999999995983 0  1.329829828222916 0.3295825481537897 0  0.8214190147401245 0.07894167681990104 0  1.525459989258997 0.3394220200696043 0  0.1990897327079506 0.06300531675246424 0  0.244701762210989 0.3062404318132603 0  0.1033853772622983 0.3551443431224104 0  0.1178236825374896 0.07148041782551597 0  0.1558198999929474 0.04409380269139784 0  0.3389178979413869 0.198678920661321 0  0.310790717645908 0.2196004930752872 0  2.125022007676643 0.3402049371791425 0  2.130028889485561 0.06535501282233655 0  0.4821161335597635 0.1626909543876269 0  0.2838678108956019 0.1254276466262967 0  0.5062815929260498 0.2376271077316994 0  1.663059277092996 0.3422301118688678 0  1.82292665764828 0.1574809263836269 0  2.052538557905295 0.05717536030732174 0  0.3078251537889645 0.16056368457456 0  0.8108267070172145 0.3390047366820738 0  1.487254632568403 0.0703866281621833 0  0.155004430757041 0.2369517702015699 0  0.1725545045705267 0.2519594403466565 0  0.1445581653510352 0.2167994984574706 0  0.1420710285613199 0.1942747855116325 0  1.461861739291679 0.3471998553985149 0  0.2372128969196007 0.2453440460936858 0  0.1943665918892754 0.2580518465884657 0  0.2452139232912363 0.1629124725160763 0  0.2555786751481889 0.1825885041235872 0  2.14640473333793 0.2790222779730848 0  2.145589594789407 0.1282024626544199 0  0.1486651579751984 0.1726583296292201 0  0.550000000001476 0.3603327897285098 0  0.0505668771231032 0.3660023622363767 0  1.049999999997169 0.05217028468202135 0  1.244771793631775 0.05744029386223062 0  0.1356759337238615 0.1094447816941579 0  0.5872326411628903 0.2223148728195226 0  0.2168458206248643 0.2558159203714847 0  1.749999999998732 0.05166028789524129 0  0.2855257256666041 0.1763246086558152 0  1.92
[...]
<PointData  Vectors="f_22"> 
<DataArray  type="Float64"  Name="f_22"  NumberOfComponents="3" format="ascii">0.0000000000000000e+00 0.0000000000000000e+00 0.0000000000000000e+00  0.0000000000000000e+00 0.0000000000000000e+00 0.0000000000000000e+00  0.0000000000000000e+00 0.0000000000000000e+00 0.0000000000000000e+00  0.0000000000000000e+00 0.0000000000000000e+00 0.0000000000000000e+00  0.0000000000000000e+00 0.0000000000000000e+00 0.0000000000000000e+00  0.0000000000000000e+00 0.0000000000000000e+00 0.0000000000000000e+00  0.0000000000000000e+00 0.0000000000000000e+00 0.0000000000000000e+00  0.0000000000000000e+00 0.0000000000000000e+00 0.0000000000000000e+00  0.0000000000000000e+00 0.0000000000000000e+00 0.0000000000000000e+00  0.0000000000000000e+00 0.0000000000000000e+00 0.0000000000000000e+00  0.0000000000000000e+00 0.0000000000000000e+00 0.0000000000000000e+00  0.0000000000000000e+00 0.0000000000000000e+00 0.0000000000000000e+00  0.0000000000000000e+00 0.0000000000000000e+00 0.0000000000000000e+00  0.0000000000000000e+00 0.0000000000000000e+00 0.0000000000000000e+00  0.0000000000000000e+00 0.0000000000000000e+00 0.0000000000000000e+00  0.0000000000000000e+00 0.0000000000000000e+00 0.0000000000000000e+00  0.0000000000000000e+00 0.0000000000000000e+00 0.0000000000000000e+00  0.0000000000000000e+00 0.0000000000000000e+00 0.0000000000000000e+00  0.0000000000000000e+00 0.0000000000000000e+00 0.0000000000000000e+00  0.0000000000000000e+00 0.0000000000000000e+00 0.0000000000000000e+00  0.0000000000000000e+00 0.0000000000000000e+00 0.0000000000000000e+00  0.0000000000000000e+00 0.0000000000000000e+00 0.0000000000000000e+00  0.0000000000000000e+00 0.0000000000000000e+00 0.0000000000000000e+00  0.0000000000000000e+00 0.0000000000000000e+00 0.0000000000000000e+00  0.0000000000000000e+00 0.0000000000000000e+00 0.0000000000000000e+00  0.0000000000000000e+00 0.0000000000000000e+00 0.0000000000000000e+00  0.0000000000000000e+00 0.0000000000000000e+00 0.0000000000000000e+00  0.0000000000000000e+00 0.0000000000000000e+00 0.0000000000000000e+00  0.0000000000000000e+00 0.0000000000000000e+00 0.0000000000000000e+00  0.0000000000000000e+00 0.0000000000000000e+00 0.0000000000000000e+00  0.0000000000000000e+00 0.0000000000000000e+00 0.0000000000000000e+00  0.0000000000000000e+00 0.0000000000000000e+00 0.0000000000000000e+00  0.0000000000000000e+00 0.0000000000000000e+00 0.0000000000000000e+00  0.0000000000000000e+00 0.0000000000000000e+00 0.0000000000000000e+00  0.0000000000000000e+00 0.0000000000000000e+00 0.0000000000000000e+00  0.0000000000000000e+00 0.0000000000000000e+00 0.0000000000000000e+00  0.0000000000000000e+00 0.0000000000000000e+00 0.0000000000000000e+00  0.0000000000000000e+00 0.0000000000000000e+00 0.0000000000000000e+00  0.0000000000000000e+00 0.0000000000000000e+00 0.0000000000000000e+00  0.0000000000000000e+00 0.0000000000000000e+00 0.0000000000000000e+00  0.0000000000000000e+00 0.0000000000000000e+00 0.0000000000000000e+00  0.0000000000000000e+00 0.0000000000000000e+00 0.0000000000000000e+00  0.0000000000000000e+00 0.0000000000000000e+00 0.0000000000000000e+00  0.0000000000000000e+00 0.0000000000000000e+00 0.0000000000000000e+00  0.0000000000000000e+00 0.0000000000000000e+00 0.0000000000000000e+00  0.0000000000000000e+00 0.0000000000000000e+00 0.0000000000000000e+00  0.0000000000000000e+00 0.0000000000000000e+00 0.0000000000000000e+00  0.0000000000000000e+00 0.0000000000000000e+00 0.0000000000000000e+00  0.0000000000000000e+00 0.0000000000000000e+00 0.0000000000000000e+00  0.0000000000000000e+00 0.0000000000000000e+00 0.0000000000000000e+00  0.0000000000000000e+00 0.0000000000000000e+00 0.0000000000000000e+00  0.0000000000000000e+00 0.0000000000000000e+00 0.0000000000000000e+00  0.0000000000000000e+00 0.0000000000000000e+00 0.0000000000000000e+00  0.0000000000000000e+00 0.0000000000000000e+00 0.0000000000000000e+00  0.0000000000000000e+00 0.0000000000000000e+00 0.0000000000000000e+00  0.0000000000000000e+00 0.0000000000000000e+00 0.0000000000000000e+00  0.0000000000000000e+00 0.0000000000000000e+00 0.0000000000000000e+00  1.0806021805085695e+00 2.7657876078656324e-03 0.0000000000000000e+00  1.2584918752124963e+00 2.1850578847659303e-02 0.0000000000000000e+00  1.2907469758655656e+00 1.1234384247391940e-02 0.0000000000000000e+00  1.0962001832178410e+00 -9.3495953087880507e-04 0.0000000000000000e+00  0.0000000000000000e+00 0.0000000000000000e+00 0.0000000000000000e+00  0.0000000000000000e+00 0.0000000000000000e+00 0.0000000000000000e+00  0.0000000000000000e+00 0.0000000000000000e+00 0.0000000000000000e+00  0.0000000000000000e+00 0.0000000000000000e+00 0.0000000000000000e+00  0.0000000000000000e+00 0.0000000000000000e+00 0.0000000000000000e+00  0.0000000000000000e+00 0.0000000000000000e+00 0.0000000000000000e+00  0.0000000000000000e+00 0.0000000000000000e+00 0.0000000000000000e+00  0.0000000000000000e+00 0.0000000000000000e+00 0.0000000000000000e+00  0.0000000000000000e+00 0.0000000000000000e+00 0.0000000000000000e+00  0.0000000000000000e+00 0.0000000000000000e+00 0.0000000000000000e+00  0.0000000000000000e+00 0.0000000000000000e+00 0.0000000000000000e+00  0.0000000000000000e+00 0.0000000000000000e+00 0.0000000000000000e+00  0.0000000000000000e+00 0.0000000000000000e+00 0.0000000000000000e+00  0.0000000000000000e+00 0.0000000000000000e+00 0.0000000000000000e+00  0.0000000000000000e+00 0.0000000000000000e+00 0.0000000000000000e+00  0.0000000000000000e+00 0.0000000000000000e+00 0.0000000000000000e+00  0.0000000000000000e+00 0.0000000000000000e+00 0.0000000000000000e+00  0.0000000000000000e+00 0.0000000000000000e+00 0.0000000000000000e+00  0.0000000000000000e+00 0.0000000000000000e+00 0.0000000000000000e+00  0.0000000000000000e+00 0.0000000000000000e+00 0.0000000000000000e+00  0.0000000000000000e+00 0.0000000000000000e+00 0.0000000000000000e+00  9.6000004597897703e-01 0.0000000000000000e+00 0.0000000000000000e+00  1.4400000689697883e+00 0.0000000000000000e+00 0.0000000000000000e+00  1.4400000689723662e+00 0.0000000000000000e+00 0.0000000000000000e+00  9.6000004598261668e-01 0.0000000000000000e+00 0.0000000000000000e+00  4.0094411448992207e-01 3.3970239358480359e-01 0.0000000000000000e+00  6.8415343692620800e-01 2.9457934715156703e-01 0.0000000000000000e+00  5.5878184382194419e-02 1.4326021223749233e-01 0.0000000000000000e+00  1.8430330495964038e+00 1.6714592515386654e-02 0.0000000000000000e+00  1.9116132604865153e+00 1.0191167811641562e-01 0.0000000000000000e+00  1.4399564923412871e+00 2.1331114294311940e-01 0.0000000000000000e+00  1.3021839453953818e+00 3.4071416976463020e-01 0.0000000000000000e+00  1.3269363266065470e+00 2.4109242466346048e-01 0.0000000000000000e+00  1.3079574581206086e+00 -9.4224455967010401e-02 0.0000000000000000e+00  1.2733274031115251e+00 -3.3939816437664733e-01 0.0000000000000000e+00  1.4277902179103041e+00 -3.7501399325660523e-01 0.0000000000000000e+00  -2.1415797755680555e-01 -1.2710819476282953e-01 0.0000000000000000e+00  1.2604029670437769e+00 -6.7505017608613035e-02 0.0000000000000000e+00  1.3162317229613960e-01 -1.5921116174457475e-01 0.0000000000000000e+00  -1.3679898819959257e-01 -2.1345462997082214e-02 0.0000000000000000e+00  1.0563260930802789e+00 -5.4315980554791601e-02 0.0000000000000000e+00  2.2706641926312265e-01 8.6258100195252610e-04 0.0000000000000000e+00  1.9069589563760425e+00 -2.0019543695771308e-01 0.0000000000000000e+00  1.3593239719600065e+00 -3.5139177454976502e-02 0.0000000000000000e+00  1.6464304095088409e+00 7.8606127010220989e-02 0.0000000000000000e+00  1.5771047033170900e+00 -5.8771465685872837e-01 0.0000000000000000e+00  1.7029447720201818e+00 2.0094237095411743e-01 0.0000000000000000e+00  1.7941950622601877e+00 6.2818254254039207e-01 0.0000000000000000e+00  1.0314693490117588e+00 -5.5393336957654811e-02 0.0000000000000000e+00  1.9784512751467116e+00 4.3743115628618617e-01 0.0000000000000000e+00  1.8447840667437807e+00 6.3556487315501364e-01 0.0000000000000000e+00  1.4767222806789504e+00 7.5635050920807767e-01 0.0000000000000000e+00  1.1370415696814526e+00 5.3512631765125174e-01 0.0000000000000000e+00  9.3811772106176250e-01 7.4868773289651511e-02 0.0000000000000000e+00  9.9290785880303212e-01 -4.2845447161536515e-01 0.0000000000000000e+00  1.3092066729996068e+00 -7.2347522586576851e-01 0.0000000000000000e+00  1.6779764110488204e+00 -7.2896411887903634e-01 0.0000000000000000e+00  1.9422629359128414e+00 -5.1909393624543132e-01 0.0000000000000000e+00  1.3054650920900364e+00 1.3073741050324289e-01 0.0000000000000000e+00  1.0900443581244461e+00 1.8913969592977586e-01 0.0000000000000000e+00  1.2843690887931714e+00 1.0603976630164362e-01 0.0000000000000000e+00  -1.2269618727524328e-01 -1.6986722247229727e-01 0.0000000000000000e+00  1.4047832513992773e+00 6.6750886145000889e-03 0.0000000000000000e+00  1.4636927911911783e+00 -4.6103100351774134e-01 0.0000000000000000e+00  1.8550389169840931e+00 -7.9064758089212012e-02 0.0000000000000000e+00  1.2735295554953407e+00 9.4032483545341272e-03 0.0000000000000000e+00  1.2617719341506566e+00 -8.9994452944692042e-03 0.0000000000000000e+00  -9.4072061320364261e-02 -2.7324657723661598e-02 0.0000000000000000e+00  1.0442149397074789e+00 3.7538985914902284e-01 0.0000000000000000e+00  1.4171432067896657e+00 -4.5853556540518481e-02 0.0000000000000000e+00  1.0926752574961718e+00 -7.3977870174621096e-02 0.0000000000000000e+00  1.5102301657625163e+00 8.3651666660462351e-02 0.0000000000000000e+00  1.2465698019897353e+00 -4.8039049219598118e-02 0.0000000000000000e+00  1.1706276473137809e+00 -1.9551639747777946e-02 0.0000000000000000e+00  -6.7771132316240074e-02 -2.2122105480658097e-01 0.0000000000000000e+00  1.4172046821900617e+00 1.2394559709635967e-02 0.0000000000000000e+00  9.6724405035809791e-01 -4.0737116417748812e-02 0.0000000000000000e+00  1.0739263051124082e+00 1.6046288981566276e-01 0.0000000000000000e+00  4.5232788372860572e-01 -5.7793240944110924e-01 0.0000000000000000e+00  1.7240171318130046e+00 8.4486131916448859e-01 0.0000000000000000e+00  1.2181519022605662e+00 9.2016791865660130e-01 0.0000000000000000e+00  7.5220085556993588e-01 4.8074718754761037e-01 0.0000000000000000e+00  6.4907863862915216e-01 -2.3078460669998524e-01 0.0000000000000000e+00  1.9919964611422947e+00 5.9168490311924649e-01 0.0000000000000000e+00  1.9842172976753496e+00 -2.8120191936472644e-01 0.0000000000000000e+00  1.4640602063538921e+00 2.0642229816532437e-01 0.0000000000000000e+00  9.8110786233991409e-01 -8.3019281534453160e-01 0.0000000000000000e+00  1.7934386846031651e+00 -4.6907782097074724e-01 0.0000000000000000e+00  1.1037013215294880e+00 -1.1944346997280682e-01 0.0000000000000000e+00  1.2947942212553063e+00 8.2105008952015163e-04 0.0000000000000000e+00  1.1760337718756635e+00 7.7544920931627959e-02 0.0000000000000000e+00  2.5860094187011134e-01 2.6667551408742704e-02 0.0000000000000000e+00  -6.2247924010575349e-02 1.6647664865196685e-02 0.0000000000000000e+00  -5.3890333676018656e-02 -1.1050190899184670e-01 0.0000000000000000e+00  1.8615037310905489e+00 -3.6716937522840126e-01 0.0000000000000000e+00  1.7073828684384302e+00 2.1481339314415990e-01 0.0000000000000000e+00  2.5327738768778016e-02 -1.1987006540250519e-01 0.0000000000000000e+00  1.5411604735485580e+00 -1.0654789521807051e+00 0.0000000000000000e+00  1.0288675074688252e+00 1.6622577238144054e-01 0.0000000000000000e+00  3.2467917338599001e-01 -2.8559956080459369e-02 0.0000000000000000e+00  1.9166010681723351e+00 2.4795267857784242e-01 0.0000000000000000e+00  6.4233821575948380e-01 -1.3239286530311598e-01 0.0000000000000000e+00  1.2211207484906295e+00 8.0848765140203397e-03 0.0000000000000000e+00  1.1566325301887297e+00 -6.8413243834477361e-02 0.0000000000000000e+00  1.1626965052199953e+00 -3.2436760181127990e-02 0.0000000000000000e+00  4.9033397840107473e-01 -2.9203234330501902e-02 0.0000000000000000e+00  1.7803102701370590e+00 -3.3710802684254626e-01 0.0000000000000000e+00  -6.4479107744516997e-02 -1.8694219749554816e-01 0.0000000000000000e+00  1.4896913284409865e+00 1.0954706107840115e+00 0.0000000000000000e+00  -5.0054594465827093e-02 -1.8176983109404529e-01 0.0000000000000000e+00  1.8588497821376213e+00 7.6091323099210939e-01 0.0000000000000000e+00  8.2747374364611503e-01 8.9290944742674150e-01 0.0000000000000000e+00  4.2707982374128750e-01 1.6284020369286273e-01 0.0000000000000000e+00  8.6797728360873094e-01 5.0204438034396781e-02 0.0000000000000000e+00  1.2575735992644370e+00 2.6708055599228956e-02 0.0000000000000000e+00  1.3094340301300640e+00 2.6129208126738346e-01 0.0000000000000000e+00  1.3642603214763855e+00 2.4402618590713887e-01 0.0000000000000000e+00  -4.9068874058335918e-02 4.1993360965752083e-02 0.0000000000000000e+00  6.0564765659636244e-01 -6.6543170923537542e-01 0.0000000000000000e+00  8.9413339480627863e-01 4.1802581622802981e-02 0.0000000000000000e+00  1.9830683015358170e+00 -8.0746592158835828e-01 0.0000000000000000e+00  1.1684693127096037e+00 -1.6367255645388497e-02 0.0000000000000000e+00  2.8969657911262880e-01 2.3272017392706314e-02 0.0000000000000000e+00  -4.0622525413783594e-01 5.0383507809105410e-01 0.0000000000000000e+00  1.0745822871988497e+00 1.0074373277673652e-01 0.0000000000000000e+00  1.1873146392305645e+00 -1.1173442396812399e+00 0.0000000000000000e+00  1.3219686777354001e+00 -1.4721730751416059e-01 0.0000000000000000e+00  8.8688701808635151e-01 -1.1817357713064583e-01 0.0000000000000000e+00  1.0795575768700330e+00 7.8455899748105656e-02 0.0000000000000000e+00  7.7476950927370247e-01 -5.5718106385861832e-02 0.0000000000000000e+00  1.5078126611468788e-02 -6.1096692056309153e-02 0.0000000000000000e+00  1.3816576599353039e+00 7.8618194731918653e-02 0.0000000000000000e+00  1.8515321166840961e+00 -5.1838696902196335e-01 0.0000000000000000e+00  9.0119268665126384e-01 1.3627700385167777e-02 0.0000000000000000e+00  1.8083100845704483e+00 -1.0177191443353801e+00 0.0000000000000000e+00  1.0597295452214555e+00 2.8047582668811192e-02 0.0000000000000000e+00  1.8682756793764570e+00 1.5933268072788259e-01 0.0000000000000000e+00  1.1314788989951508e+00 5.2924712833904075e-01 0.0000000000000000e+00  1.4129400813001645e+00 7.2459753747423347e-02 0.0000000000000000e+00  1.0148608060202366e+00 1.5864971389275370e-01 0.0000000000000000e+00  -1.7579893940006938e-01 -8.1807132072113931e-02 0.0000000000000000e+00  1.1003967470745712e+00 -5.3554768453840176e-03 0.0000000000000000e+00  1.3524265790720149e+00 4.1866880422903213e-01 0.0000000000000000e+00  1.3255515151768074e+00 -4.8932133774633325e-02 0.0000000000000000e+00  1.2680358696621821e+00 1.4214996541634459e-01 0.0000000000000000e+00  1.4089242281119512e+00 1.1950702945307784e-01 0.0000000000000000e+00  1.3020982022292631e+00 1.0595688302247284e-01 0.0000000000000000e+00  1.5543283815608022e+00 -1.2449961529060226e-01 0.0000000000000000e+00  1.1249719949092423e+00 -3.3329806737523539e-02 0.0000000000000000e+00  1.7943074038987659e+00 2.4375880897725404e-02 0.0000000000000000e+00  -2.7626052711541282e-02 -3.8215887170594764e-02 0.0000000000000000e+00  1.3174920102387253e+00 -3.9534959072665590e-02 0.0000000000000000e+00  1.5600833358685271e+00 3.9959756997075913e-01 0.0000000000000000e+00  1.7721682349751917e+00 -3.6262451134668611e-01 0.0000000000000000e+00  1.4114621258623963e+00 2.5172186598436708e-01 0.0000000000000000e+00  1.0039108658323255e+00 -7.2039123909484063e-03 0.0000000000000000e+00  1.4734784071884153e+00 -4.4089629859127129e-02 0.0000000000000000e+00  1.4420815875531676e+00 -2.2564401174023244e-01 0.0000000000000000e+00  1.6236153491369381e+00 2.4058557433840007e-02 0.0000000000000000e+00  -6.5635099685416420e-02 2.2377110767263534e-03 0.0000000000000000e+00  1.2772403100888181e+00 -3.4067451003375970e-01 0.0000000000000000e+00  1.4291632734516206e+00 8.0187155264201726e-01 0.0000000000000000e+00  1.4366794347502585e+00 1.1345144598362993e-02 0.0000000000000000e+00  9.4476123234074738e-01 -4.9648882460077169e-02 0.0000000000000000e+00  8.4028720145104741e-01 -8.6734330375806065e-02 0.0000000000000000e+00  8.3643252586047667e-01 2.2115442261467368e-02 0.0000000000000000e+00  1.3855103498000456e+00 -2.0267118996552402e-01 0.0000000000000000e+00  1.8681995332656831e+00 2.1982646608123754e-01 0.0000000000000000e+00  8.3796188996086318e-01 1.3321411090161731e-01 0.0000000000000000e+00  1.0710261378616366e+00 -2.4398692502200703e-01 0.0000000000000000e+00  9.6479856854001589e-01 -1.5405644015169645e-01 0.0000000000000000e+00  -3.6171926028253398e-01 7.9495785493589696e-02 0.0000000000000000e+00  -2.3101770910392891e-01 -7.0643397612324523e-03 0.0000000000000000e+00  1.0043086610637595e+00 -1.4087023120256897e-04 0.0000000000000000e+00  9.5979638398032519e-01 2.0210101799491178e-03 0.0000000000000000e+00  -2.0906143010221874e-02 2.2532340442511781e-01 0.0000000000000000e+00  1.6749194892177448e+00 -8.1346091123829824e-03 0.0000000000000000e+00  1.4540494152045449e+00 -8.0277941221955229e-01 0.0000000000000000e+00  8.4199040058117014e-01 3.8431475701494439e-02 0.0000000000000000e+00  1.2656853435799673e+00 6.2913152231949473e-02 0.0000000000000000e+00  8.8112024445265202e-01 -5.9311960776543555e-04 0.0000000000000000e+00  2.1798972739307210e-01 -1.1297755769009751e-01 0.0000000000000000e+00  1.3252862155729539e+00 -1.2639057469016080e-01 0.0000000000000000e+00  8.3863599673513789e-01 -4.5422128157842648e-02 0.0000000000000000e+00  1.0737022997235319e+00 1.1088552814540638e+00 0.0000000000000000e+00  1.6389088567328522e+00 9.4414817109170623e-01 0.0000000000000000e+00  4.4134838523219455e-01 6.1576877080453374e-01 0.0000000000000000e+00  3.0885190326929624e-01 -2.8787357073947595e-01 0.0000000000000000e+00  7.0294255971475650e-01 8.4410141128250932e-03 0.0000000000000000e+00  -2.4861127711453174e-02 4.1930784814119409e-02 0.0000000000000000e+00  1.3837154974967831e+00 3.6361028983055260e-01 0.0000000000000000e+00  -6.6450785920669636e-02 -1.0659026677110532e-01 0.0000000000000000e+00  -5.3521083031562937e-02 -1.8410343294900144e-01 0.0000000000000000e+00  1.2699989069517241e+00 7.0269729082642861e-03 0.0000000000000000e+00  1.2535494593917067e+00 1.0130614818793508e-02 0.0000000000000000e+00  7.6233861303671546e-01 -1.0229570571768785e+00 0.0000000000000000e+00  8.0810148020471384e-01 -9.7370971957392791e-02 0.0000000000000000e+00  6.0911693557528779e-01 4.8566346119252611e-02 0.0000000000000000e+00  7.2713015141080450e-01 4.4255934014048995e-02 0.0000000000000000e+00  6.7545921959145028e-01 2.4998172354264752e-02 0.0000000000000000e+00  1.3983630371874314e+00 -4.8204690691901148e-01 0.0000000000000000e+00  1.1092231329026689e+00 -6.2253680923642740e-01 0.0000000000000000e+00  4.4992971064488313e-01 2.4813673266497180e-02 0.0000000000000000e+00  7.6638632399750517e-01 -1.3184481939387122e-02 0.0000000000000000e+00  -6.5692402102771177e-02 -1.9521223717881106e-01 0.0000000000000000e+00  9.3372729432666968e-01 -1.1632571418096004e-02 0.0000000000000000e+00  1.2522505495069600e+00 1.0072078317732171e-01 0.0000000000000000e+00  7.0143768085502534e-01 -3.0417197038269072e-02 0.0000000000000000e+00  1.7549500041774053e+00 1.2313421776503519e-01 0.0000000000000000e+00  1.4591277732814263e+00 -2.4088009097498624e-02 0.0000000000000000e+00  1.5566489331105116e+00 5.7069855299532013e-01 0.0000000000000000e+00  1.1491240531038378e+00 1.0440454952576383e-01 0.0000000000000000e+00  1.5227206944262572e+00 6.5246892203102258e-02 0.0000000000000000e+00  1.4076243011388643e+00 1.1678939874686899e-01 0.0000000000000000e+00  1.5737903024002606e+00 2.2218882556118112e-02 0.0000000000000000e+00  1.4049218258568741e+00 1.3560867802126576e-02 0.0000000000000000e+00  1.2062858895591597e+00 -4.7750209677033577e-02 0.0000000000000000e+00  9.9501441338656793e-01 4.5411173192870108e-03 0.0000000000000000e+00  1.5839975225266327e+00 3.4217735489832557e-01 0.0000000000000000e+00  1.5152501939024863e+00 2.5488526664637368e-01 0.0000000000000000e+00  1.3169490542577746e+00 1.7369849064882453e-01 0.0000000000000000e+00  1.7572626659969675e+00 1.452155474543