<?xml version="1.0"?>
<VTKFile type="UnstructuredGrid"  version="0.1"  >
<UnstructuredGrid>
<Piece  NumberOfPoints="3852" NumberOfCells="7360">
<Points>
<DataArray  type="Float64"  NumberOfComponents="3"  format="ascii">0 0 0  0 0.41 0  2.2 0.41 0  2.2 0 0  0.2 0.15 0  0.15 0.2 0  0.2 0.25 0  0.25 0.2 0  0.2097545161007899 0.1509607359798352 0  0.219134171618224 0.153806023374423 0  0.2277785116509268 0.1584265193848371 0  0.2353553390592504 0.1646446609405956 0  0.2415734806150793 0.1722214883489481 0  0.2461939766255306 0.1808658283816641 0  0.249039264020151 0.1902454838991403 0  0.2490392640201666 0.2097545161007811 0  0.2461939766255869 0.2191341716182 0  0.2415734806151802 0.2277785116509009 0  0.2353553390594108 0.235355339059244 0  0.2277785116510524 0.2415734806150789 0  0.2191341716182962 0.2461939766255471 0  0.209754516100834 0.2490392640201561 0  0.1902454838992189 0.2490392640201666 0  0.1808658283818 0.2461939766255869 0  0.1722214883490991 0.2415734806151802 0  0.164644660940756 0.2353553390594108 0  0.1584265193849211 0.2277785116510524 0  0.1538060233744529 0.2191341716182962 0  0.150960735979844 0.209754516100834 0  0.1509607359798352 0.1902454838992101 0  0.153806023374423 0.180865828381776 0  0.1584265193848371 0.1722214883490732 0  0.1646446609405956 0.1646446609407496 0  0.1722214883489481 0.1584265193849207 0  0.1808658283816641 0.1538060233744694 0  0.1902454838991403 0.150960735979849 0  0.09999999999980318 0 0  0.1999999999996354 0 0  0.2999999999994593 0 0  0.3999999999991452 0 0  0.4999999999988309 0 0  0.599999999998495 0 0  0.6999999999982023 0 0  0.7999999999979096 0 0  0.8999999999975735 0 0  0.9999999999972848 0 0  1.099999999997053 0 0  1.199999999997309 0 0  1.299999999997566 0 0  1.399999999997821 0 0  1.49999999999809 0 0  1.599999999998377 0 0  1.69999999999859 0 0  1.799999999998877 0 0  1.899999999999145 0 0  1.999999999999386 0 0  2.099999999999693 0 0  2.2 0.08199999999981657 0  2.2 0.1639999999995688 0  2.2 0.2459999999995603 0  2.2 0.327999999999785 0  2.100000000000048 0.41 0  2.000000000000269 0.41 0  1.900000000000422 0.41 0  1.800000000000679 0.41 0  1.700000000000931 0.41 0  1.600000000001326 0.41 0  1.500000000001665 0.41 0  1.400000000002032 0.41 0  1.300000000002395 0.41 0  1.200000000002644 0.41 0  1.100000000002865 0.41 0  1.000000000002617 0.41 0  0.900000000002368 0.41 0  0.8000000000021192 0.41 0  0.7000000000018587 0.41 0  0.6000000000015786 0.41 0  0.5000000000013736 0.41 0  0.4000000000010933 0.41 0  0.3000000000008329 0.41 0  0.2000000000005997 0.41 0  0.1000000000003003 0.41 0  0 0.3280000000001975 0  0 0.2460000000004372 0  0 0.1640000000004437 0  0 0.08200000000021695 0  0.439039350479032 0.2235433210862024 0  0.3557293424662716 0.1539377961885917 0  0.3450132387946972 0.2399891502764809 0  0.2900756359792848 0.08507884665974728 0  0.2884413411145515 0.3059878288466324 0  0.2102195502178943 0.3385267178242456 0  0.137328909169326 0.3152847369018352 0  0.08490385663776813 0.2628976192695439 0  0.08063302347471875 0.188368977740952 0  0.1005937615311739 0.1162460982751979 0  0.1621860847198582 0.08598327887900903 0  0.3012864586130264 0.1926027915888804 0  1.999140000000448 0.2049999999995642 0  0.2742354912953259 0.1572259708446958 0  0.2871471664627305 0.2264358039321654 0  0.6542851578645765 0.1981889790488746 0  0.2651366296338276 0.2534562504463119 0  0.2371819217149928 0.0977949043027586 0  1.651678197071202 0.2145186615851206 0  1.349674714201118 0.2086119645070391 0  0.9627539291831038 0.2056711800839285 0  0.2360880502985623 0.2733043913425156 0  1.159884231859056 0.2050429640239795 0  0.2502927927237266 0.1358797630898622 0  0.2080582834123368 0.2835355213895352 0  0.1805439632603489 0.278338480667804 0  0.1486243506827335 0.2626014098227327 0  0.1266658889266303 0.2392753516137401 0  0.1179814841582247 0.2069380844236527 0  0.1225167704961566 0.1764957192948648 0  0.1357996569043286 0.1472158045151807 0  0.1619764829264572 0.126298308975886 0  0.1935640279204225 0.116654032325456 0  1.82457000000085 0.2346439024393236 0  0.8027657238591595 0.149277802568535 0  1.498563450727992 0.2632867809910664 0  0.2770405925201826 0.1924926016722167 0  0.470924801584011 0.09138612536042019 0  0.550693598792917 0.2898604497866635 0  0.381089831438127 0.3238078833671811 0  2.074516462495042 0.125705772324225 0  2.083599037046577 0.2769549245607841 0  0.2692296340100125 0.2210592970306522 0  0.7614733075682367 0.2839235561638241 0  1.536698221979284 0.1258192462655419 0  1.231809489345021 0.1282542717942667 0  1.054759157670174 0.1242749934189342 0  1.754535566851005 0.1223197024158991 0  1.90452621597739 0.1324728094649104 0  0.2672409321155211 0.178737994598723 0  1.254401531996246 0.2902808614622134 0  1.04350934597445 0.2986664252663559 0  0.0749710792305778 0.3208721925318313 0  0.5425289614095572 0.165152457827861 0  0.1663208394680799 0.2644065126118989 0  0.1471335176887868 0.2433864007787126 0  0.1345556779484054 0.219852318055334 0  0.131940483167677 0.1932967226753857 0  0.1941574795820069 0.2685534232066453 0  0.2226696214021025 0.1252682734732412 0  0.2193882214552426 0.2661718674478616 0  0.1396865053227576 0.1677617654469802 0  0.8749487631478475 0.295170577255529 0  1.424301820545763 0.1157348858866879 0  1.918515045506933 0.2902236143624367 0  1.744876807925144 0.306628844405037 0  0.2443979144126529 0.254353837216211 0  0.2569054246570621 0.2306780201523878 0  0.2632507216716993 0.2062296523407826 0  0.4609453431326088 0.3138128990490959 0  0.3578015395476809 0.08253318517696946 0  0.2529777826635333 0.155582948480283 0  0.1580369715200277 0.1487041474358234 0  0.652872088668587 0.3101079993636056 0  0.297147332491062 0.2558065812325378 0  0.6188247313471635 0.1101603945467571 0  0.8951149554961688 0.1123812542864208 0  1.592749166085722 0.2985190085719691 0  1.40420309431358 0.2992155383468256 0  1.649189110727275 0.1000387439201274 0  0.2301663900864273 0.1432830242131801 0  0.2064839406544439 0.1345771465164309 0  0.2548204572493643 0.1702022465417566 0  0.1606700828011604 0.2481621709908606 0  0.2605987457303776 0.1928909671966518 0  0.1826942838524941 0.2594610608897559 0  0.1456438338561037 0.2290651013631561 0  0.1387681034994896 0.2058679665896095 0  1.140902260384949 0.3081952438204152 0  2.123402621966431 0.2039515281261525 0  0.7272188829630218 0.1047469619375249 0  0.2060868819369127 0.2616331638469837 0  0.246763614216289 0.2411610007697902 0  0.1405961691450822 0.1819800466423126 0  1.149638048863541 0.08264492713269313 0  0.1809997740285721 0.1365020267363126 0  1.993198408221569 0.09755938404998035 0  0.2287111352430851 0.2547015941619741 0  0.3818716699056283 0.2060398770290832 0  0.39147508084147 0.2656155699545688 0  0.151201080877373 0.1608659990301362 0  0.0542521118046473 0.1382221876243976 0  0.06190301158313444 0.0685934933767465 0  1.317316039400266 0.1015983144534349 0  0.2176417279723976 0.1415790407114221 0  0.2401571300978209 0.1529210337009423 0  0.2618092962776011 0.3566662607419938 0  0.1941527094396574 0.1377969918002053 0  0.9590486261329707 0.3255353063371385 0  0.1708201090411339 0.1447474051814825 0  1.837592370686806 0.3302992722413595 0  0.3197015570210796 0.1212159119695666 0  0.4155281956943757 0.1409543952531078 0  0.0549491513262805 0.2307535706287103 0  0.1668210562270142 0.3605647861782867 0  0.2854688902460447 0.2093700809023571 0  2.013251581901814 0.3292746985146142 0  0.1192191106244758 0.2809901915857802 0  0.2487958366614321 0.04556523514103697 0  0.09061021186838321 0.2240174335271237 0  1.737143840576958 0.20912817770623 0  0.04515017012776967 0.2784708690411318 0  0.5347554646753627 0.08988970780599832 0  0.977104673723579 0.08241628541188413 0  0.336509991617897 0.2888965225844298 0  0.2569238041969055 0.2173711314485607 0  1.906541186051535 0.2125389476829634 0  0.1762338839607841 0.3102437166134606 0  1.449268841077636 0.201011295143529 0  0.8555371485878378 0.2099663446585434 0  1.837208236203613 0.07556229833764837 0  1.264402545318887 0.1992523923163096 0  1.068181074047183 0.2155119107017876 0  0.3158931250274742 0.3421721218291775 0  0.2731958384900449 0.2373435058667565 0  0.09875906484220501 0.1533097574901186 0  0.7355755433976705 0.2066339904079041 0  1.567440499207928 0.2049999999995983 0  1.329829828222916 0.3295825481537897 0  0.8214190147401245 0.07894167681990104 0  1.525459989258997 0.3394220200696043 0  0.1990897327079506 0.06300531675246424 0  0.244701762210989 0.3062404318132603 0  0.1033853772622983 0.3551443431224104 0  0.1178236825374896 0.07148041782551597 0  0.1558198999929474 0.04409380269139784 0  0.3389178979413869 0.198678920661321 0  0.310790717645908 0.2196004930752872 0  2.125022007676643 0.3402049371791425 0  2.130028889485561 0.06535501282233655 0  0.4821161335597635 0.1626909543876269 0  0.2838678108956019 0.1254276466262967 0  0.5062815929260498 0.2376271077316994 0  1.663059277092996 0.3422301118688678 0  1.82292665764828 0.1574809263836269 0  2.052538557905295 0.05717536030732174 0  0.3078251537889645 0.16056368457456 0  0.8108267070172145 0.3390047366820738 0  1.487254632568403 0.0703866281621833 0  0.155004430757041 0.2369517702015699 0  0.1725545045705267 0.2519594403466565 0  0.1445581653510352 0.2167994984574706 0  0.1420710285613199 0.1942747855116325 0  1.461861739291679 0.3471998553985149 0  0.2372128969196007 0.2453440460936858 0  0.1943665918892754 0.2580518465884657 0  0.2452139232912363 0.1629124725160763 0  0.2555786751481889 0.1825885041235872 0  2.14640473333793 0.2790222779730848 0  2.145589594789407 0.1282024626544199 0  0.1486651579751984 0.1726583296292201 0  0.550000000001476 0.3603327897285098 0  0.0505668771231032 0.3660023622363767 0  1.049999999997169 0.05217028468202135 0  1.244771793631775 0.05744029386223062 0  0.1356759337238615 0.1094447816941579 0  0.5872326411628903 0.2223148728195226 0  0.2168458206248643 0.2558159203714847 0  1.749999999998732 0.05166028789524129 0  0.2855257256666041 0.1763246086558152 0  1.92
[...]
<PointData  Vectors="f_22"> 
<DataArray  type="Float64"  Name="f_22"  NumberOfComponents="3" format="ascii">0.0000000000000000e+00 0.0000000000000000e+00 0.0000000000000000e+00  0.0000000000000000e+00 0.0000000000000000e+00 0.0000000000000000e+00  0.0000000000000000e+00 0.0000000000000000e+00 0.0000000000000000e+00  0.0000000000000000e+00 0.0000000000000000e+00 0.0000000000000000e+00  0.0000000000000000e+00 0.0000000000000000e+00 0.0000000000000000e+00  0.0000000000000000e+00 0.0000000000000000e+00 0.0000000000000000e+00  0.0000000000000000e+00 0.0000000000000000e+00 0.0000000000000000e+00  0.0000000000000000e+00 0.0000000000000000e+00 0.0000000000000000e+00  0.0000000000000000e+00 0.0000000000000000e+00 0.0000000000000000e+00  0.0000000000000000e+00 0.0000000000000000e+00 0.0000000000000000e+00  0.0000000000000000e+00 0.0000000000000000e+00 0.0000000000000000e+00  0.0000000000000000e+00 0.0000000000000000e+00 0.0000000000000000e+00  0.0000000000000000e+00 0.0000000000000000e+00 0.0000000000000000e+00  0.0000000000000000e+00 0.0000000000000000e+00 0.0000000000000000e+00  0.0000000000000000e+00 0.0000000000000000e+00 0.0000000000000000e+00  0.0000000000000000e+00 0.0000000000000000e+00 0.0000000000000000e+00  0.0000000000000000e+00 0.0000000000000000e+00 0.0000000000000000e+00  0.0000000000000000e+00 0.0000000000000000e+00 0.0000000000000000e+00  0.0000000000000000e+00 0.0000000000000000e+00 0.0000000000000000e+00  0.0000000000000000e+00 0.0000000000000000e+00 0.0000000000000000e+00  0.0000000000000000e+00 0.0000000000000000e+00 0.0000000000000000e+00  0.0000000000000000e+00 0.0000000000000000e+00 0.0000000000000000e+00  0.0000000000000000e+00 0.0000000000000000e+00 0.0000000000000000e+00  0.0000000000000000e+00 0.0000000000000000e+00 0.0000000000000000e+00  0.0000000000000000e+00 0.0000000000000000e+00 0.0000000000000000e+00  0.0000000000000000e+00 0.0000000000000000e+00 0.0000000000000000e+00  0.0000000000000000e+00 0.0000000000000000e+00 0.0000000000000000e+00  0.0000000000000000e+00 0.0000000000000000e+00 0.0000000000000000e+00  0.0000000000000000e+00 0.0000000000000000e+00 0.0000000000000000e+00  0.0000000000000000e+00 0.0000000000000000e+00 0.0000000000000000e+00  0.0000000000000000e+00 0.0000000000000000e+00 0.0000000000000000e+00  0.0000000000000000e+00 0.0000000000000000e+00 0.0000000000000000e+00  0.0000000000000000e+00 0.0000000000000000e+00 0.0000000000000000e+00  0.0000000000000000e+00 0.0000000000000000e+00 0.0000000000000000e+00  0.0000000000000000e+00 0.0000000000000000e+00 0.0000000000000000e+00  0.0000000000000000e+00 0.0000000000000000e+00 0.0000000000000000e+00  0.0000000000000000e+00 0.0000000000000000e+00 0.0000000000000000e+00  0.0000000000000000e+00 0.0000000000000000e+00 0.0000000000000000e+00  0.0000000000000000e+00 0.0000000000000000e+00 0.0000000000000000e+00  0.0000000000000000e+00 0.0000000000000000e+00 0.0000000000000000e+00  0.0000000000000000e+00 0.0000000000000000e+00 0.0000000000000000e+00  0.0000000000000000e+00 0.0000000000000000e+00 0.0000000000000000e+00  0.0000000000000000e+00 0.0000000000000000e+00 0.0000000000000000e+00  0.0000000000000000e+00 0.0000000000000000e+00 0.0000000000000000e+00  0.0000000000000000e+00 0.0000000000000000e+00 0.0000000000000000e+00  0.0000000000000000e+00 0.0000000000000000e+00 0.0000000000000000e+00  0.0000000000000000e+00 0.0000000000000000e+00 0.0000000000000000e+00  0.0000000000000000e+00 0.0000000000000000e+00 0.0000000000000000e+00  0.0000000000000000e+00 0.0000000000000000e+00 0.0000000000000000e+00  0.0000000000000000e+00 0.0000000000000000e+00 0.0000000000000000e+00  0.0000000000000000e+00 0.0000000000000000e+00 0.0000000000000000e+00  0.0000000000000000e+00 0.0000000000000000e+00 0.0000000000000000e+00  0.0000000000000000e+00 0.0000000000000000e+00 0.0000000000000000e+00  0.0000000000000000e+00 0.0000000000000000e+00 0.0000000000000000e+00  0.0000000000000000e+00 0.0000000000000000e+00 0.0000000000000000e+00  0.0000000000000000e+00 0.0000000000000000e+00 0.0000000000000000e+00  0.0000000000000000e+00 0.0000000000000000e+00 0.0000000000000000e+00  1.0354997266091430e+00 -4.7722733742823296e-03 0.0000000000000000e+00  1.3439134862663480e+00 4.2383702577255981e-02 0.0000000000000000e+00  1.3009384882471213e+00 1.2878749804191497e-01 0.0000000000000000e+00  1.0701427563591439e+00 3.6703931075053479e-02 0.0000000000000000e+00  0.0000000000000000e+00 0.0000000000000000e+00 0.0000000000000000e+00  0.0000000000000000e+00 0.0000000000000000e+00 0.0000000000000000e+00  0.0000000000000000e+00 0.0000000000000000e+00 0.0000000000000000e+00  0.0000000000000000e+00 0.0000000000000000e+00 0.0000000000000000e+00  0.0000000000000000e+00 0.0000000000000000e+00 0.0000000000000000e+00  0.0000000000000000e+00 0.0000000000000000e+00 0.0000000000000000e+00  0.0000000000000000e+00 0.0000000000000000e+00 0.0000000000000000e+00  0.0000000000000000e+00 0.0000000000000000e+00 0.0000000000000000e+00  0.0000000000000000e+00 0.0000000000000000e+00 0.0000000000000000e+00  0.0000000000000000e+00 0.0000000000000000e+00 0.0000000000000000e+00  0.0000000000000000e+00 0.0000000000000000e+00 0.0000000000000000e+00  0.0000000000000000e+00 0.0000000000000000e+00 0.0000000000000000e+00  0.0000000000000000e+00 0.0000000000000000e+00 0.0000000000000000e+00  0.0000000000000000e+00 0.0000000000000000e+00 0.0000000000000000e+00  0.0000000000000000e+00 0.0000000000000000e+00 0.0000000000000000e+00  0.0000000000000000e+00 0.0000000000000000e+00 0.0000000000000000e+00  0.0000000000000000e+00 0.0000000000000000e+00 0.0000000000000000e+00  0.0000000000000000e+00 0.0000000000000000e+00 0.0000000000000000e+00  0.0000000000000000e+00 0.0000000000000000e+00 0.0000000000000000e+00  0.0000000000000000e+00 0.0000000000000000e+00 0.0000000000000000e+00  0.0000000000000000e+00 0.0000000000000000e+00 0.0000000000000000e+00  9.6000004881746637e-01 0.0000000000000000e+00 0.0000000000000000e+00  1.4400000732275220e+00 0.0000000000000000e+00 0.0000000000000000e+00  1.4400000732301002e+00 0.0000000000000000e+00 0.0000000000000000e+00  9.6000004882110590e-01 0.0000000000000000e+00 0.0000000000000000e+00  4.5427010759273517e-01 4.4267152265868531e-01 0.0000000000000000e+00  1.0193401324525704e+00 4.1465410604429748e-01 0.0000000000000000e+00  -3.4062646820094356e-02 9.6039382516369343e-02 0.0000000000000000e+00  1.8364557538647568e+00 5.7748079359565704e-02 0.0000000000000000e+00  1.8775722744001957e+00 6.5407723175396934e-02 0.0000000000000000e+00  1.4235815424643310e+00 1.9772711819652325e-01 0.0000000000000000e+00  1.2974815874890524e+00 3.3004193132676901e-01 0.0000000000000000e+00  1.3257348834698461e+00 2.3345109014827634e-01 0.0000000000000000e+00  1.3091092500802701e+00 -1.0204772713076517e-01 0.0000000000000000e+00  1.2769295457409056e+00 -3.4426739795817640e-01 0.0000000000000000e+00  1.4344980248561208e+00 -3.7438284482503481e-01 0.0000000000000000e+00  -1.9765087665535733e-01 -2.6436870503728910e-01 0.0000000000000000e+00  1.4148710423377857e+00 1.0791711732853838e-01 0.0000000000000000e+00  1.8607561872203826e-01 -2.0079122670249014e-01 0.0000000000000000e+00  -1.8061122636535631e-01 -1.1358559920377208e-01 0.0000000000000000e+00  1.1870446033260886e+00 -2.5938952571400042e-01 0.0000000000000000e+00  2.6306613372949422e-01 -3.2009319442838337e-02 0.0000000000000000e+00  1.9167309605073521e+00 -1.7863921306633637e-01 0.0000000000000000e+00  1.6492157913088141e+00 3.0631992477107994e-01 0.0000000000000000e+00  1.6276806569070139e+00 -5.0338446681569426e-01 0.0000000000000000e+00  1.4759115001756946e+00 -6.9346402209552283e-01 0.0000000000000000e+00  1.7392878452215070e+00 1.7886247086192816e-01 0.0000000000000000e+00  1.5556354084303559e+00 6.9076873048312526e-01 0.0000000000000000e+00  1.0954653357638766e+00 -4.5573175348503671e-02 0.0000000000000000e+00  1.9777908468848497e+00 4.1573405619596421e-01 0.0000000000000000e+00  1.8431384125743693e+00 6.2012840625599785e-01 0.0000000000000000e+00  1.4731543511314154e+00 7.4351999614623021e-01 0.0000000000000000e+00  1.1342021433896841e+00 5.2147745648991961e-01 0.0000000000000000e+00  9.3830988843764451e-01 6.0237734423999635e-02 0.0000000000000000e+00  9.9744079767933247e-01 -4.4287203077410003e-01 0.0000000000000000e+00  1.3184078097563499e+00 -7.3470887165294518e-01 0.0000000000000000e+00  1.6918882882697943e+00 -7.3402534798707475e-01 0.0000000000000000e+00  1.9596240697509877e+00 -5.1414719150486110e-01 0.0000000000000000e+00  1.6206396051010896e+00 -2.1586967066023527e-01 0.0000000000000000e+00  1.1097680082377208e+00 3.6079497831281293e-01 0.0000000000000000e+00  1.2583364038261218e+00 -1.0493477915269814e-01 0.0000000000000000e+00  -1.1402597169857828e-01 -2.8055660695030998e-01 0.0000000000000000e+00  1.2457634460214275e+00 1.4745758836754309e-02 0.0000000000000000e+00  1.4452757642919554e+00 -4.6455260651938562e-01 0.0000000000000000e+00  1.7912082284077835e+00 -8.4286923775549388e-02 0.0000000000000000e+00  1.3562971431734143e+00 2.5562440775799569e-02 0.0000000000000000e+00  1.1884854539657710e+00 2.1993674355978821e-02 0.0000000000000000e+00  -1.1162796865470510e-01 -1.0607938833924055e-01 0.0000000000000000e+00  1.1667572421412054e+00 4.2322915434547059e-01 0.0000000000000000e+00  1.3927220593444742e+00 2.4178602414587957e-01 0.0000000000000000e+00  1.0302621112120256e+00 3.5673866704495744e-01 0.0000000000000000e+00  1.5105736618373045e+00 1.4948024366148840e-01 0.0000000000000000e+00  1.1596178659196212e+00 -2.3072288898726943e-02 0.0000000000000000e+00  1.3456811875528996e+00 -1.9420658866390428e-01 0.0000000000000000e+00  -4.7458121185980751e-02 -3.0529437935781512e-01 0.0000000000000000e+00  1.5362100560690222e+00 -1.7172783770792766e-01 0.0000000000000000e+00  7.6578355171470702e-01 -2.4494642878794845e-01 0.0000000000000000e+00  1.0726289682977592e+00 1.5600162411540031e-01 0.0000000000000000e+00  7.4879319456797000e-01 -6.1150320469693609e-01 0.0000000000000000e+00  1.7217593406008589e+00 8.3237508357526702e-01 0.0000000000000000e+00  1.2135351533593681e+00 9.0684856135137459e-01 0.0000000000000000e+00  7.4949080435508286e-01 4.6436325931476718e-01 0.0000000000000000e+00  6.5141702544912883e-01 -2.4847545907915997e-01 0.0000000000000000e+00  1.9999234913385744e+00 5.7792259249645062e-01 0.0000000000000000e+00  2.0176171503209144e+00 -2.6829137961409921e-01 0.0000000000000000e+00  1.5049242413815711e+00 1.9412957765659494e-01 0.0000000000000000e+00  9.8962246322007563e-01 -8.4625205712673346e-01 0.0000000000000000e+00  1.6992869903946977e+00 -3.4580992383649090e-01 0.0000000000000000e+00  1.3680320985916801e+00 -2.5513565510005420e-01 0.0000000000000000e+00  1.0760620001862555e+00 2.7911079369651738e-02 0.0000000000000000e+00  1.2987869933335907e+00 -1.1941104416204407e-01 0.0000000000000000e+00  2.9862901015169330e-01 1.4559019240737452e-02 0.0000000000000000e+00  -6.7003557364942096e-02 -2.5030709758706381e-02 0.0000000000000000e+00  -5.4772639630587615e-02 -1.9946788428180989e-01 0.0000000000000000e+00  1.8094529558219468e+00 -3.6542947589136993e-01 0.0000000000000000e+00  1.6527644617401656e+00 2.8325959940472345e-01 0.0000000000000000e+00  3.1366409311576082e-02 -1.2720853911949326e-01 0.0000000000000000e+00  1.5563288685943151e+00 -1.0773477371416991e+00 0.0000000000000000e+00  8.9356737583390289e-01 1.0222973089053405e-01 0.0000000000000000e+00  3.3984897932250707e-01 -9.6083867849315843e-02 0.0000000000000000e+00  1.7977370578793654e+00 1.1115857042467976e-01 0.0000000000000000e+00  6.2627606899044974e-01 -3.2045731907998698e-01 0.0000000000000000e+00  1.0687076952704384e+00 1.9309645245198223e-01 0.0000000000000000e+00  1.1164386408061131e+00 -1.2358795474979527e-01 0.0000000000000000e+00  1.0288203344208651e+00 5.4052546507990552e-02 0.0000000000000000e+00  5.1842135892589281e-01 -2.6751563876545544e-02 0.0000000000000000e+00  1.8153231142189532e+00 -3.3443995323194037e-01 0.0000000000000000e+00  -5.9196129212165882e-02 -2.1847592475169939e-01 0.0000000000000000e+00  1.4860679929223579e+00 1.0851561500665510e+00 0.0000000000000000e+00  -4.8183085794261976e-02 -2.6501025218703272e-01 0.0000000000000000e+00  1.8672193934936483e+00 7.5421010432668911e-01 0.0000000000000000e+00  8.2242843483886330e-01 8.7775256418982162e-01 0.0000000000000000e+00  4.2624567340929026e-01 1.4413919775983006e-01 0.0000000000000000e+00  8.0399637257899215e-01 5.3519795814238624e-01 0.0000000000000000e+00  1.4170602084632509e+00 3.9797382239398028e-02 0.0000000000000000e+00  1.2357058946797845e+00 2.4517448663700006e-01 0.0000000000000000e+00  1.3994063451530947e+00 2.3830344542121890e-01 0.0000000000000000e+00  -4.1153243529887279e-02 3.0454675180456241e-02 0.0000000000000000e+00  6.1139783344675203e-01 -6.8420638628397024e-01 0.0000000000000000e+00  9.9294216640079846e-01 1.1976902457184406e-01 0.0000000000000000e+00  2.0049514066330585e+00 -8.1153615490234421e-01 0.0000000000000000e+00  1.2261104680065122e+00 -1.7798205906520412e-02 0.0000000000000000e+00  3.2320348820687539e-01 1.5069892376270202e-02 0.0000000000000000e+00  -4.2031627621994871e-01 5.9701071003636608e-01 0.0000000000000000e+00  1.0828678101678595e+00 1.1463376420587225e-01 0.0000000000000000e+00  1.1997301347459965e+00 -1.1329494098909860e+00 0.0000000000000000e+00  1.3229024471936897e+00 -1.4972897801167215e-01 0.0000000000000000e+00  8.8733178811428193e-01 -1.1899501277322190e-01 0.0000000000000000e+00  7.1625118484100458e-01 -2.2560477698523465e-01 0.0000000000000000e+00  8.0474701427564699e-01 -5.4082824493414429e-02 0.0000000000000000e+00  1.7008826389926332e-02 -5.8855481701943858e-02 0.0000000000000000e+00  1.3479803445752143e+00 6.3769443026048034e-02 0.0000000000000000e+00  1.8805168503515386e+00 -5.2022644566899656e-01 0.0000000000000000e+00  9.2214235630072594e-01 -6.7482224338274915e-02 0.0000000000000000e+00  1.8278977853582079e+00 -1.0269818737601673e+00 0.0000000000000000e+00  8.9024499710810401e-01 -3.1509851350086861e-02 0.0000000000000000e+00  1.9766497042075497e+00 2.2723610512409970e-01 0.0000000000000000e+00  1.2900729767625814e+00 6.5319436423664301e-01 0.0000000000000000e+00  1.4128080711897097e+00 6.8060555437246276e-02 0.0000000000000000e+00  1.0035290452267878e+00 1.5079807696246803e-01 0.0000000000000000e+00  -2.0235393019979478e-01 -1.9378482139500874e-01 0.0000000000000000e+00  9.4336506616410842e-01 4.4350402193663083e-02 0.0000000000000000e+00  1.3496019389051965e+00 4.0793819027320211e-01 0.0000000000000000e+00  1.3161912901456361e+00 -3.4033047031241763e-02 0.0000000000000000e+00  1.2676059702843774e+00 1.3252959076907439e-01 0.0000000000000000e+00  1.4687987707959687e+00 -1.3880339770431874e-01 0.0000000000000000e+00  1.3017617412420344e+00 1.0326719273940971e-01 0.0000000000000000e+00  1.3808048413068505e+00 -1.8262196370924619e-01 0.0000000000000000e+00  1.1470168521882560e+00 -1.3120900562103677e-01 0.0000000000000000e+00  1.7723824523788332e+00 -4.9654947181895122e-03 0.0000000000000000e+00  -2.5213767625489884e-02 -9.6329019289496123e-02 0.0000000000000000e+00  1.6417413497471249e+00 -1.5884393211467820e-01 0.0000000000000000e+00  1.5531813699541601e+00 3.8449371377485375e-01 0.0000000000000000e+00  1.3022842041919991e+00 -9.5509942064196524e-02 0.0000000000000000e+00  1.6477600189325781e+00 2.3629290577311704e-01 0.0000000000000000e+00  8.0609771170460609e-01 -4.3574211906307343e-02 0.0000000000000000e+00  1.5423583480442107e+00 3.2637208986797242e-02 0.0000000000000000e+00  1.6293199986595501e+00 2.4629889027276239e-02 0.0000000000000000e+00  1.5724227253390142e+00 6.4125627553925629e-03 0.0000000000000000e+00  -8.9274578950138531e-02 -6.0010509066453097e-02 0.0000000000000000e+00  1.2808910153731503e+00 -3.4900747896001583e-01 0.0000000000000000e+00  1.5206594689752362e+00 8.9917085867126512e-01 0.0000000000000000e+00  1.6806709250515988e+00 3.0409339797716450e-01 0.0000000000000000e+00  1.0106154732530042e+00 -1.0249202661991567e-01 0.0000000000000000e+00  6.6406995799898449e-01 9.2938490521952383e-02 0.0000000000000000e+00  6.6968655090170448e-01 -3.2481989551320117e-02 0.0000000000000000e+00  1.3883614932188579e+00 -1.9520110427807635e-01 0.0000000000000000e+00  1.8522372135603584e+00 1.9066748157691787e-01 0.0000000000000000e+00  8.3461352062596073e-01 1.2841471479560981e-01 0.0000000000000000e+00  1.0735172295729318e+00 -2.4584491426078148e-01 0.0000000000000000e+00  9.6683156752943722e-01 -1.5304624133070791e-01 0.0000000000000000e+00  -3.6367291881915248e-01 -1.6251779767065516e-02 0.0000000000000000e+00  -3.0744653161363639e-01 -1.2480345625218249e-01 0.0000000000000000e+00  9.2036303399031727e-01 3.2248135898607276e-02 0.0000000000000000e+00  9.0061295676062703e-01 -3.6134601300782531e-03 0.0000000000000000e+00  1.9698905582632845e-01 3.2987262533886846e-01 0.0000000000000000e+00  1.7702030813273788e+00 1.8068593614442106e-02 0.0000000000000000e+00  1.6092581540932087e+00 -8.2673712774076213e-01 0.0000000000000000e+00  8.7997578072190474e-01 7.5959828771428095e-02 0.0000000000000000e+00  1.4856010609326045e+00 -8.0199220950699437e-02 0.0000000000000000e+00  8.1730178009456089e-01 -3.4173500625636335e-03 0.0000000000000000e+00  3.7956569392817224e-01 -1.7088554226879052e-01 0.0000000000000000e+00  1.2735063234389581e+00 -7.3640654482524964e-02 0.0000000000000000e+00  9.9718190987258915e-01 9.4029743301999980e-02 0.0000000000000000e+00  1.0686901266656343e+00 1.0979429684746145e+00 0.0000000000000000e+00  1.6422384863310213e+00 9.3955556284853259e-01 0.0000000000000000e+00  4.3755739525537002e-01 5.9884708181206703e-01 0.0000000000000000e+00  3.1108856403624435e-01 -3.0730556467687958e-01 0.0000000000000000e+00  6.7782368246352698e-01 -5.6002187394504542e-02 0.0000000000000000e+00  -1.2511800648838878e-02 3.7675666864762897e-02 0.0000000000000000e+00  1.4093455634210259e+00 3.6243155942722144e-01 0.0000000000000000e+00  -6.6890965118015858e-02 -1.0737687547327142e-01 0.0000000000000000e+00  -5.3415664478178769e-02 -2.3271052327271405e-01 0.0000000000000000e+00  1.1659158780796346e+00 8.6450059710197355e-02 0.0000000000000000e+00  1.3067482070211003e+00 2.5824981462407332e-02 0.0000000000000000e+00  7.7161492883310423e-01 -1.0407571127628501e+00 0.0000000000000000e+00  7.1931759461750666e-01 -9.1598174982652728e-02 0.0000000000000000e+00  6.0853462684184656e-01 4.7372834443871595e-02 0.0000000000000000e+00  8.4636444421101431e-01 2.2631491357964672e-02 0.0000000000000000e+00  5.6363638939270211e-01 7.9071226039890363e-02 0.0000000000000000e+00  1.4054879752084715e+00 -4.8650080457273209e-01 0.0000000000000000e+00  1.2676793881709876e+00 -6.2644741935439385e-01 0.0000000000000000e+00  4.8318976388317769e-01 1.9174079545807028e-02 0.0000000000000000e+00  5.4861158310255431e-01 -6.9021499991814041e-03 0.0000000000000000e+00  -6.8988410471684108e-03 -2.9630291754907079e-01 0.0000000000000000e+00  8.4286660246221445e-01 -6.4123182051735672e-02 0.0000000000000000e+00  1.1173382030356180e+00 1.2172271044481148e-01 0.0000000000000000e+00  7.1067364958963464e-01 7.8737507001028176e-02 0.0000000000000000e+00  1.7868902855693707e+00 8.7286123538620697e-02 0.0000000000000000e+00  1.4593435363408052e+00 -2.6432742628576002e-02 0.0000000000000000e+00  1.5528212026919392e+00 5.5728838444035378e-01 0.0000000000000000e+00  1.0036585836804688e+00 1.1295253485290581e-01 0.0000000000000000e+00  1.2046080043529908e+00 2.4131375052142422e-02 0.0000000000000000e+00  1.5208415142589295e+00 1.2567794152116493e-01 0.0000000000000000e+00  1.2884787710245758e+00 1.1655839584677434e-01 0.0000000000000000e+00  1.2660371569527638e+00 -9.7807952225048733e-02 0.0000000000000000e+00  1.0818208455254799e+00 9.1768352277260597e-03 0.0000000000000000e+00  1.0245933288500977e+00 2.3550816539636230e-01 0.0000000000000000e+00  1.2895629663106811e+00 2.5654188776140202e-01 0.0000000000000000e+00  1.2748237443104922e+00 3.6180012457093769e-01 0.0000000000000000e+00  1.2492378740796817e+00 1.6047465447373133e-01 0.0000000000000000e+00  1.6191750191999392e+00 3.52406879