<?xml version="1.0"?>
<VTKFile type="UnstructuredGrid"  version="0.1"  >
<UnstructuredGrid>
<Piece  NumberOfPoints="3852" NumberOfCells="7360">
<Points>
<DataArray  type="Float64"  NumberOfComponents="3"  format="ascii">0 0 0  0 0.41 0  2.2 0.41 0  2.2 0 0  0.2 0.15 0  0.15 0.2 0  0.2 0.25 0  0.25 0.2 0  0.2097545161007899 0.1509607359798352 0  0.219134171618224 0.153806023374423 0  0.2277785116509268 0.1584265193848371 0  0.2353553390592504 0.1646446609405956 0  0.2415734806150793 0.1722214883489481 0  0.2461939766255306 0.1808658283816641 0  0.249039264020151 0.1902454838991403 0  0.2490392640201666 0.2097545161007811 0  0.2461939766255869 0.2191341716182 0  0.2415734806151802 0.2277785116509009 0  0.2353553390594108 0.235355339059244 0  0.2277785116510524 0.2415734806150789 0  0.2191341716182962 0.2461939766255471 0  0.209754516100834 0.2490392640201561 0  0.1902454838992189 0.2490392640201666 0  0.1808658283818 0.2461939766255869 0  0.1722214883490991 0.2415734806151802 0  0.164644660940756 0.2353553390594108 0  0.1584265193849211 0.2277785116510524 0  0.1538060233744529 0.2191341716182962 0  0.150960735979844 0.209754516100834 0  0.1509607359798352 0.1902454838992101 0  0.153806023374423 0.180865828381776 0  0.1584265193848371 0.1722214883490732 0  0.1646446609405956 0.1646446609407496 0  0.1722214883489481 0.1584265193849207 0  0.1808658283816641 0.1538060233744694 0  0.1902454838991403 0.150960735979849 0  0.09999999999980318 0 0  0.1999999999996354 0 0  0.2999999999994593 0 0  0.3999999999991452 0 0  0.4999999999988309 0 0  0.599999999998495 0 0  0.6999999999982023 0 0  0.7999999999979096 0 0  0.8999999999975735 0 0  0.9999999999972848 0 0  1.099999999997053 0 0  1.199999999997309 0 0  1.299999999997566 0 0  1.399999999997821 0 0  1.49999999999809 0 0  1.599999999998377 0 0  1.69999999999859 0 0  1.799999999998877 0 0  1.899999999999145 0 0  1.999999999999386 0 0  2.099999999999693 0 0  2.2 0.08199999999981657 0  2.2 0.1639999999995688 0  2.2 0.2459999999995603 0  2.2 0.327999999999785 0  2.100000000000048 0.41 0  2.000000000000269 0.41 0  1.900000000000422 0.41 0  1.800000000000679 0.41 0  1.700000000000931 0.41 0  1.600000000001326 0.41 0  1.500000000001665 0.41 0  1.400000000002032 0.41 0  1.300000000002395 0.41 0  1.200000000002644 0.41 0  1.100000000002865 0.41 0  1.000000000002617 0.41 0  0.900000000002368 0.41 0  0.8000000000021192 0.41 0  0.7000000000018587 0.41 0  0.6000000000015786 0.41 0  0.5000000000013736 0.41 0  0.4000000000010933 0.41 0  0.3000000000008329 0.41 0  0.2000000000005997 0.41 0  0.1000000000003003 0.41 0  0 0.3280000000001975 0  0 0.2460000000004372 0  0 0.1640000000004437 0  0 0.08200000000021695 0  0.439039350479032 0.2235433210862024 0  0.3557293424662716 0.1539377961885917 0  0.3450132387946972 0.2399891502764809 0  0.2900756359792848 0.08507884665974728 0  0.2884413411145515 0.3059878288466324 0  0.2102195502178943 0.3385267178242456 0  0.137328909169326 0.3152847369018352 0  0.08490385663776813 0.2628976192695439 0  0.08063302347471875 0.188368977740952 0  0.1005937615311739 0.1162460982751979 0  0.1621860847198582 0.08598327887900903 0  0.3012864586130264 0.1926027915888804 0  1.999140000000448 0.2049999999995642 0  0.2742354912953259 0.1572259708446958 0  0.2871471664627305 0.2264358039321654 0  0.6542851578645765 0.1981889790488746 0  0.2651366296338276 0.2534562504463119 0  0.2371819217149928 0.0977949043027586 0  1.651678197071202 0.2145186615851206 0  1.349674714201118 0.2086119645070391 0  0.9627539291831038 0.2056711800839285 0  0.2360880502985623 0.2733043913425156 0  1.159884231859056 0.2050429640239795 0  0.2502927927237266 0.1358797630898622 0  0.2080582834123368 0.2835355213895352 0  0.1805439632603489 0.278338480667804 0  0.1486243506827335 0.2626014098227327 0  0.1266658889266303 0.2392753516137401 0  0.1179814841582247 0.2069380844236527 0  0.1225167704961566 0.1764957192948648 0  0.1357996569043286 0.1472158045151807 0  0.1619764829264572 0.126298308975886 0  0.1935640279204225 0.116654032325456 0  1.82457000000085 0.2346439024393236 0  0.8027657238591595 0.149277802568535 0  1.498563450727992 0.2632867809910664 0  0.2770405925201826 0.1924926016722167 0  0.470924801584011 0.09138612536042019 0  0.550693598792917 0.2898604497866635 0  0.381089831438127 0.3238078833671811 0  2.074516462495042 0.125705772324225 0  2.083599037046577 0.2769549245607841 0  0.2692296340100125 0.2210592970306522 0  0.7614733075682367 0.2839235561638241 0  1.536698221979284 0.1258192462655419 0  1.231809489345021 0.1282542717942667 0  1.054759157670174 0.1242749934189342 0  1.754535566851005 0.1223197024158991 0  1.90452621597739 0.1324728094649104 0  0.2672409321155211 0.178737994598723 0  1.254401531996246 0.2902808614622134 0  1.04350934597445 0.2986664252663559 0  0.0749710792305778 0.3208721925318313 0  0.5425289614095572 0.165152457827861 0  0.1663208394680799 0.2644065126118989 0  0.1471335176887868 0.2433864007787126 0  0.1345556779484054 0.219852318055334 0  0.131940483167677 0.1932967226753857 0  0.1941574795820069 0.2685534232066453 0  0.2226696214021025 0.1252682734732412 0  0.2193882214552426 0.2661718674478616 0  0.1396865053227576 0.1677617654469802 0  0.8749487631478475 0.295170577255529 0  1.424301820545763 0.1157348858866879 0  1.918515045506933 0.2902236143624367 0  1.744876807925144 0.306628844405037 0  0.2443979144126529 0.254353837216211 0  0.2569054246570621 0.2306780201523878 0  0.2632507216716993 0.2062296523407826 0  0.4609453431326088 0.3138128990490959 0  0.3578015395476809 0.08253318517696946 0  0.2529777826635333 0.155582948480283 0  0.1580369715200277 0.1487041474358234 0  0.652872088668587 0.3101079993636056 0  0.297147332491062 0.2558065812325378 0  0.6188247313471635 0.1101603945467571 0  0.8951149554961688 0.1123812542864208 0  1.592749166085722 0.2985190085719691 0  1.40420309431358 0.2992155383468256 0  1.649189110727275 0.1000387439201274 0  0.2301663900864273 0.1432830242131801 0  0.2064839406544439 0.1345771465164309 0  0.2548204572493643 0.1702022465417566 0  0.1606700828011604 0.2481621709908606 0  0.2605987457303776 0.1928909671966518 0  0.1826942838524941 0.2594610608897559 0  0.1456438338561037 0.2290651013631561 0  0.1387681034994896 0.2058679665896095 0  1.140902260384949 0.3081952438204152 0  2.123402621966431 0.2039515281261525 0  0.7272188829630218 0.1047469619375249 0  0.2060868819369127 0.2616331638469837 0  0.246763614216289 0.2411610007697902 0  0.1405961691450822 0.1819800466423126 0  1.149638048863541 0.08264492713269313 0  0.1809997740285721 0.1365020267363126 0  1.993198408221569 0.09755938404998035 0  0.2287111352430851 0.2547015941619741 0  0.3818716699056283 0.2060398770290832 0  0.39147508084147 0.2656155699545688 0  0.151201080877373 0.1608659990301362 0  0.0542521118046473 0.1382221876243976 0  0.06190301158313444 0.0685934933767465 0  1.317316039400266 0.1015983144534349 0  0.2176417279723976 0.1415790407114221 0  0.2401571300978209 0.1529210337009423 0  0.2618092962776011 0.3566662607419938 0  0.1941527094396574 0.1377969918002053 0  0.9590486261329707 0.3255353063371385 0  0.1708201090411339 0.1447474051814825 0  1.837592370686806 0.3302992722413595 0  0.3197015570210796 0.1212159119695666 0  0.4155281956943757 0.1409543952531078 0  0.0549491513262805 0.2307535706287103 0  0.1668210562270142 0.3605647861782867 0  0.2854688902460447 0.2093700809023571 0  2.013251581901814 0.3292746985146142 0  0.1192191106244758 0.2809901915857802 0  0.2487958366614321 0.04556523514103697 0  0.09061021186838321 0.2240174335271237 0  1.737143840576958 0.20912817770623 0  0.04515017012776967 0.2784708690411318 0  0.5347554646753627 0.08988970780599832 0  0.977104673723579 0.08241628541188413 0  0.336509991617897 0.2888965225844298 0  0.2569238041969055 0.2173711314485607 0  1.906541186051535 0.2125389476829634 0  0.1762338839607841 0.3102437166134606 0  1.449268841077636 0.201011295143529 0  0.8555371485878378 0.2099663446585434 0  1.837208236203613 0.07556229833764837 0  1.264402545318887 0.1992523923163096 0  1.068181074047183 0.2155119107017876 0  0.3158931250274742 0.3421721218291775 0  0.2731958384900449 0.2373435058667565 0  0.09875906484220501 0.1533097574901186 0  0.7355755433976705 0.2066339904079041 0  1.567440499207928 0.2049999999995983 0  1.329829828222916 0.3295825481537897 0  0.8214190147401245 0.07894167681990104 0  1.525459989258997 0.3394220200696043 0  0.1990897327079506 0.06300531675246424 0  0.244701762210989 0.3062404318132603 0  0.1033853772622983 0.3551443431224104 0  0.1178236825374896 0.07148041782551597 0  0.1558198999929474 0.04409380269139784 0  0.3389178979413869 0.198678920661321 0  0.310790717645908 0.2196004930752872 0  2.125022007676643 0.3402049371791425 0  2.130028889485561 0.06535501282233655 0  0.4821161335597635 0.1626909543876269 0  0.2838678108956019 0.1254276466262967 0  0.5062815929260498 0.2376271077316994 0  1.663059277092996 0.3422301118688678 0  1.82292665764828 0.1574809263836269 0  2.052538557905295 0.05717536030732174 0  0.3078251537889645 0.16056368457456 0  0.8108267070172145 0.3390047366820738 0  1.487254632568403 0.0703866281621833 0  0.155004430757041 0.2369517702015699 0  0.1725545045705267 0.2519594403466565 0  0.1445581653510352 0.2167994984574706 0  0.1420710285613199 0.1942747855116325 0  1.461861739291679 0.3471998553985149 0  0.2372128969196007 0.2453440460936858 0  0.1943665918892754 0.2580518465884657 0  0.2452139232912363 0.1629124725160763 0  0.2555786751481889 0.1825885041235872 0  2.14640473333793 0.2790222779730848 0  2.145589594789407 0.1282024626544199 0  0.1486651579751984 0.1726583296292201 0  0.550000000001476 0.3603327897285098 0  0.0505668771231032 0.3660023622363767 0  1.049999999997169 0.05217028468202135 0  1.244771793631775 0.05744029386223062 0  0.1356759337238615 0.1094447816941579 0  0.5872326411628903 0.2223148728195226 0  0.2168458206248643 0.2558159203714847 0  1.749999999998732 0.05166028789524129 0  0.2855257256666041 0.1763246086558152 0  1.92
[...]
<PointData  Vectors="f_22"> 
<DataArray  type="Float64"  Name="f_22"  NumberOfComponents="3" format="ascii">0.0000000000000000e+00 0.0000000000000000e+00 0.0000000000000000e+00  0.0000000000000000e+00 0.0000000000000000e+00 0.0000000000000000e+00  0.0000000000000000e+00 0.0000000000000000e+00 0.0000000000000000e+00  0.0000000000000000e+00 0.0000000000000000e+00 0.0000000000000000e+00  0.0000000000000000e+00 0.0000000000000000e+00 0.0000000000000000e+00  0.0000000000000000e+00 0.0000000000000000e+00 0.0000000000000000e+00  0.0000000000000000e+00 0.0000000000000000e+00 0.0000000000000000e+00  0.0000000000000000e+00 0.0000000000000000e+00 0.0000000000000000e+00  0.0000000000000000e+00 0.0000000000000000e+00 0.0000000000000000e+00  0.0000000000000000e+00 0.0000000000000000e+00 0.0000000000000000e+00  0.0000000000000000e+00 0.0000000000000000e+00 0.0000000000000000e+00  0.0000000000000000e+00 0.0000000000000000e+00 0.0000000000000000e+00  0.0000000000000000e+00 0.0000000000000000e+00 0.0000000000000000e+00  0.0000000000000000e+00 0.0000000000000000e+00 0.0000000000000000e+00  0.0000000000000000e+00 0.0000000000000000e+00 0.0000000000000000e+00  0.0000000000000000e+00 0.0000000000000000e+00 0.0000000000000000e+00  0.0000000000000000e+00 0.0000000000000000e+00 0.0000000000000000e+00  0.0000000000000000e+00 0.0000000000000000e+00 0.0000000000000000e+00  0.0000000000000000e+00 0.0000000000000000e+00 0.0000000000000000e+00  0.0000000000000000e+00 0.0000000000000000e+00 0.0000000000000000e+00  0.0000000000000000e+00 0.0000000000000000e+00 0.0000000000000000e+00  0.0000000000000000e+00 0.0000000000000000e+00 0.0000000000000000e+00  0.0000000000000000e+00 0.0000000000000000e+00 0.0000000000000000e+00  0.0000000000000000e+00 0.0000000000000000e+00 0.0000000000000000e+00  0.0000000000000000e+00 0.0000000000000000e+00 0.0000000000000000e+00  0.0000000000000000e+00 0.0000000000000000e+00 0.0000000000000000e+00  0.0000000000000000e+00 0.0000000000000000e+00 0.0000000000000000e+00  0.0000000000000000e+00 0.0000000000000000e+00 0.0000000000000000e+00  0.0000000000000000e+00 0.0000000000000000e+00 0.0000000000000000e+00  0.0000000000000000e+00 0.0000000000000000e+00 0.0000000000000000e+00  0.0000000000000000e+00 0.0000000000000000e+00 0.0000000000000000e+00  0.0000000000000000e+00 0.0000000000000000e+00 0.0000000000000000e+00  0.0000000000000000e+00 0.0000000000000000e+00 0.0000000000000000e+00  0.0000000000000000e+00 0.0000000000000000e+00 0.0000000000000000e+00  0.0000000000000000e+00 0.0000000000000000e+00 0.0000000000000000e+00  0.0000000000000000e+00 0.0000000000000000e+00 0.0000000000000000e+00  0.0000000000000000e+00 0.0000000000000000e+00 0.0000000000000000e+00  0.0000000000000000e+00 0.0000000000000000e+00 0.0000000000000000e+00  0.0000000000000000e+00 0.0000000000000000e+00 0.0000000000000000e+00  0.0000000000000000e+00 0.0000000000000000e+00 0.0000000000000000e+00  0.0000000000000000e+00 0.0000000000000000e+00 0.0000000000000000e+00  0.0000000000000000e+00 0.0000000000000000e+00 0.0000000000000000e+00  0.0000000000000000e+00 0.0000000000000000e+00 0.0000000000000000e+00  0.0000000000000000e+00 0.0000000000000000e+00 0.0000000000000000e+00  0.0000000000000000e+00 0.0000000000000000e+00 0.0000000000000000e+00  0.0000000000000000e+00 0.0000000000000000e+00 0.0000000000000000e+00  0.0000000000000000e+00 0.0000000000000000e+00 0.0000000000000000e+00  0.0000000000000000e+00 0.0000000000000000e+00 0.0000000000000000e+00  0.0000000000000000e+00 0.0000000000000000e+00 0.0000000000000000e+00  0.0000000000000000e+00 0.0000000000000000e+00 0.0000000000000000e+00  0.0000000000000000e+00 0.0000000000000000e+00 0.0000000000000000e+00  0.0000000000000000e+00 0.0000000000000000e+00 0.0000000000000000e+00  0.0000000000000000e+00 0.0000000000000000e+00 0.0000000000000000e+00  0.0000000000000000e+00 0.0000000000000000e+00 0.0000000000000000e+00  0.0000000000000000e+00 0.0000000000000000e+00 0.0000000000000000e+00  0.0000000000000000e+00 0.0000000000000000e+00 0.0000000000000000e+00  0.0000000000000000e+00 0.0000000000000000e+00 0.0000000000000000e+00  1.0570420951792663e+00 -1.3835868327517204e-02 0.0000000000000000e+00  1.2196230400675445e+00 -5.6920683151772782e-02 0.0000000000000000e+00  1.3721966098810006e+00 -6.0111721031931777e-02 0.0000000000000000e+00  1.0932780911893805e+00 -3.4667386274595227e-03 0.0000000000000000e+00  0.0000000000000000e+00 0.0000000000000000e+00 0.0000000000000000e+00  0.0000000000000000e+00 0.0000000000000000e+00 0.0000000000000000e+00  0.0000000000000000e+00 0.0000000000000000e+00 0.0000000000000000e+00  0.0000000000000000e+00 0.0000000000000000e+00 0.0000000000000000e+00  0.0000000000000000e+00 0.0000000000000000e+00 0.0000000000000000e+00  0.0000000000000000e+00 0.0000000000000000e+00 0.0000000000000000e+00  0.0000000000000000e+00 0.0000000000000000e+00 0.0000000000000000e+00  0.0000000000000000e+00 0.0000000000000000e+00 0.0000000000000000e+00  0.0000000000000000e+00 0.0000000000000000e+00 0.0000000000000000e+00  0.0000000000000000e+00 0.0000000000000000e+00 0.0000000000000000e+00  0.0000000000000000e+00 0.0000000000000000e+00 0.0000000000000000e+00  0.0000000000000000e+00 0.0000000000000000e+00 0.0000000000000000e+00  0.0000000000000000e+00 0.0000000000000000e+00 0.0000000000000000e+00  0.0000000000000000e+00 0.0000000000000000e+00 0.0000000000000000e+00  0.0000000000000000e+00 0.0000000000000000e+00 0.0000000000000000e+00  0.0000000000000000e+00 0.0000000000000000e+00 0.0000000000000000e+00  0.0000000000000000e+00 0.0000000000000000e+00 0.0000000000000000e+00  0.0000000000000000e+00 0.0000000000000000e+00 0.0000000000000000e+00  0.0000000000000000e+00 0.0000000000000000e+00 0.0000000000000000e+00  0.0000000000000000e+00 0.0000000000000000e+00 0.0000000000000000e+00  0.0000000000000000e+00 0.0000000000000000e+00 0.0000000000000000e+00  9.6000005175700065e-01 0.0000000000000000e+00 0.0000000000000000e+00  1.4400000776368236e+00 0.0000000000000000e+00 0.0000000000000000e+00  1.4400000776394020e+00 0.0000000000000000e+00 0.0000000000000000e+00  9.6000005176064029e-01 0.0000000000000000e+00 0.0000000000000000e+00  5.8557378882305322e-01 -8.6590326514638505e-01 0.0000000000000000e+00  6.8933780006014606e-02 9.4528744076166293e-02 0.0000000000000000e+00  6.1830172745787049e-01 6.5805378223559488e-02 0.0000000000000000e+00  1.7659189098829839e+00 -2.0890425799685440e-02 0.0000000000000000e+00  1.9820441752735809e+00 1.7057205306668717e-02 0.0000000000000000e+00  1.4711225193797743e+00 1.9947931746066519e-01 0.0000000000000000e+00  1.3270058678204446e+00 3.5906528602045701e-01 0.0000000000000000e+00  1.3376538606830091e+00 2.7344268735019550e-01 0.0000000000000000e+00  1.3059230795105512e+00 -5.3090187572383665e-02 0.0000000000000000e+00  1.2582188003408028e+00 -3.0704884095897811e-01 0.0000000000000000e+00  1.3936629287799007e+00 -3.5416074009252241e-01 0.0000000000000000e+00  -2.6524573228262732e-01 2.5880295836067180e-01 0.0000000000000000e+00  1.4089761649071504e+00 1.4805198858660956e-01 0.0000000000000000e+00  7.2366142256732342e-03 5.0160582434816643e-02 0.0000000000000000e+00  7.3498454231700240e-03 2.9658649325687447e-01 0.0000000000000000e+00  1.1523473502850345e+00 6.2747745744033967e-01 0.0000000000000000e+00  3.2515597487128750e-01 9.9817506825235977e-02 0.0000000000000000e+00  1.8536685374068687e+00 -1.9486385644488810e-01 0.0000000000000000e+00  1.6801349993145220e+00 -1.2727763497858338e-01 0.0000000000000000e+00  1.5436539616496436e+00 6.0768419948133111e-02 0.0000000000000000e+00  1.6375395983952430e+00 8.6204310534909079e-01 0.0000000000000000e+00  1.8122173868976412e+00 1.9554282112740770e-01 0.0000000000000000e+00  1.7668314861996461e+00 -3.5725851177209428e-01 0.0000000000000000e+00  1.0036042549080422e+00 -1.8884718272507841e-02 0.0000000000000000e+00  2.0375866712876847e+00 4.2981554017872797e-01 0.0000000000000000e+00  1.8994399787133096e+00 6.5028395370826686e-01 0.0000000000000000e+00  1.5183119005628005e+00 7.9754388377904273e-01 0.0000000000000000e+00  1.1611950924930814e+00 5.9126174572753354e-01 0.0000000000000000e+00  9.4296937326343089e-01 1.3850069527055839e-01 0.0000000000000000e+00  9.7930128400081329e-01 -3.6626579814248389e-01 0.0000000000000000e+00  1.2801414465625427e+00 -6.7283974806443225e-01 0.0000000000000000e+00  1.6375264463454624e+00 -6.9466523040660655e-01 0.0000000000000000e+00  1.8963795064822047e+00 -5.0020457274047736e-01 0.0000000000000000e+00  1.3171150220994714e+00 1.4115934449707598e-01 0.0000000000000000e+00  1.2770077986924586e+00 -5.5551456473202721e-01 0.0000000000000000e+00  1.5509507988880975e+00 3.8178591433987086e-01 0.0000000000000000e+00  -1.4786010485138182e-01 1.8966246217257438e-01 0.0000000000000000e+00  1.8560347357432734e+00 2.9288113484766393e-01 0.0000000000000000e+00  9.5760709216639539e-01 1.8477682641245619e-01 0.0000000000000000e+00  1.6454548239172040e+00 -2.9110180841718442e-01 0.0000000000000000e+00  1.2330001803065713e+00 1.4097069459148478e-02 0.0000000000000000e+00  1.2931921313931065e+00 7.1402972911991006e-02 0.0000000000000000e+00  -5.1257025121811177e-02 2.8207978205674411e-01 0.0000000000000000e+00  1.5409813187716783e+00 -4.6100755926523224e-01 0.0000000000000000e+00  1.1725788878827637e+00 1.8772720060375270e-02 0.0000000000000000e+00  1.2688573285825755e+00 -5.1622621894815679e-01 0.0000000000000000e+00  9.4656124757069804e-01 3.1105436517050589e-01 0.0000000000000000e+00  1.2729866070576548e+00 -2.2883766267501224e-01 0.0000000000000000e+00  1.4164909145112021e+00 7.5595380673970734e-03 0.0000000000000000e+00  -1.0579153217960707e-01 7.7302143255635627e-02 0.0000000000000000e+00  1.0909250747744352e+00 -8.6230435262957983e-02 0.0000000000000000e+00  1.3717200338008961e+00 1.4385478734372634e-01 0.0000000000000000e+00  1.0811953846202182e+00 1.7594746755625529e-01 0.0000000000000000e+00  1.6372935662407735e+00 8.3522953378970233e-01 0.0000000000000000e+00  1.7778288869785084e+00 8.7716124824904451e-01 0.0000000000000000e+00  1.2586371699182919e+00 9.7683581878648962e-01 0.0000000000000000e+00  7.7117338695769500e-01 5.5152046965956625e-01 0.0000000000000000e+00  6.4360563666408344e-01 -1.5724877228301556e-01 0.0000000000000000e+00  2.0611720695744538e+00 6.0067467338444835e-01 0.0000000000000000e+00  1.9353935784880483e+00 -2.6779773408394059e-01 0.0000000000000000e+00  1.5560225246382091e+00 2.0805934143170912e-01 0.0000000000000000e+00  9.5366284132776169e-01 -7.6599185240170653e-01 0.0000000000000000e+00  7.5687010744262406e-01 -2.2016650430008181e-01 0.0000000000000000e+00  1.1683385133805826e+00 1.1882623875536158e-01 0.0000000000000000e+00  1.1493773149164390e+00 3.1099945978942577e-02 0.0000000000000000e+00  1.0193168577470511e+00 3.1646903585351098e-02 0.0000000000000000e+00  2.8511429808360422e-01 4.9581984927102120e-02 0.0000000000000000e+00  -5.4911576925593404e-02 2.0451444898389842e-01 0.0000000000000000e+00  -5.5600313085293361e-02 2.3217321632792681e-01 0.0000000000000000e+00  1.3129408134885518e+00 -2.1387178813801294e-01 0.0000000000000000e+00  1.7199584767861491e+00 4.2081958680165003e-02 0.0000000000000000e+00  2.2256555415714710e-02 -3.0033665315887484e-02 0.0000000000000000e+00  1.4978279396524206e+00 -1.0183893642362691e+00 0.0000000000000000e+00  1.7881134639380911e+00 -1.1170695110733034e-01 0.0000000000000000e+00  6.5255070231923240e-01 1.1735442135196154e-01 0.0000000000000000e+00  1.1583106292476038e+00 1.9156220667253673e-01 0.0000000000000000e+00  1.6144094441395489e+00 1.8883426396248154e-01 0.0000000000000000e+00  1.3160980390993398e+00 -1.2429963336222688e-01 0.0000000000000000e+00  8.8264902559063119e-01 5.7704290826541361e-02 0.0000000000000000e+00  9.7926138470109192e-01 -1.4158272861677989e-02 0.0000000000000000e+00  4.9625420702801998e-01 -1.5479780157510760e-02 0.0000000000000000e+00  1.7410827338572068e+00 -3.2426672905025389e-01 0.0000000000000000e+00  -6.2634507894198541e-02 -1.6856860097258258e-02 0.0000000000000000e+00  1.5430022972737520e+00 1.1442886060419792e+00 0.0000000000000000e+00  -4.0742272428404773e-02 1.4025580170483581e-01 0.0000000000000000e+00  1.9257663630717565e+00 7.8434208721110121e-01 0.0000000000000000e+00  8.6094371286670679e-01 9.6232225487561318e-01 0.0000000000000000e+00  4.3433545687878305e-01 2.4198935233152088e-01 0.0000000000000000e+00  1.3212061832255320e+00 -1.8168099484961434e-01 0.0000000000000000e+00  1.2860273500219537e+00 7.8648251870034075e-02 0.0000000000000000e+00  5.9833769696738781e-01 -1.3052559433114114e-01 0.0000000000000000e+00  1.4369519925774494e+00 2.5039616580453039e-01 0.0000000000000000e+00  -5.8229290420841767e-02 1.0013394273221017e-01 0.0000000000000000e+00  5.8643361837229147e-01 -5.9084252218914235e-01 0.0000000000000000e+00  6.0301707532462878e-01 -9.4783923666618961e-02 0.0000000000000000e+00  1.9349321354462363e+00 -7.8060054703465842e-01 0.0000000000000000e+00  1.1296732117258566e+00 -1.6907090127024443e-02 0.0000000000000000e+00  3.1073842126516055e-01 3.0393240529118244e-02 0.0000000000000000e+00  -1.5291467223478952e-01 -2.5049276777493634e-01 0.0000000000000000e+00  1.7579950730936851e+00 -6.6318663733130023e-01 0.0000000000000000e+00  1.1486228432875791e+00 -1.0586394164135469e+00 0.0000000000000000e+00  1.3181751726528486e+00 -1.2597650938980440e-01 0.0000000000000000e+00  8.8163320656644351e-01 -1.0591762767399178e-01 0.0000000000000000e+00  1.3476878692522603e+00 1.4057092931821458e-01 0.0000000000000000e+00  7.7015372549216699e-01 -4.6465007552881653e-02 0.0000000000000000e+00  3.8875321591692762e-02 -3.8938231596996567e-02 0.0000000000000000e+00  1.3894982560599924e+00 3.8744355506514887e-02 0.0000000000000000e+00  1.8107068295490656e+00 -5.0225365523567989e-01 0.0000000000000000e+00  7.4395323632313115e-01 2.1261464572631122e-01 0.0000000000000000e+00  1.7605941501590316e+00 -9.8199967793579768e-01 0.0000000000000000e+00  9.3963190851575840e-01 4.2878821708696196e-02 0.0000000000000000e+00  1.5469831558898355e+00 1.1049866412067733e-01 0.0000000000000000e+00  8.1075727303472411e-01 -1.8340248679265780e-01 0.0000000000000000e+00  1.4156727892786607e+00 9.7447864002533191e-02 0.0000000000000000e+00  1.0388053360722607e+00 1.6012156017211734e-01 0.0000000000000000e+00  -1.3153258798391557e-01 2.8540742755302029e-01 0.0000000000000000e+00  1.0382024010022533e+00 4.3627740060237528e-02 0.0000000000000000e+00  1.3757030267536610e+00 4.5173817579787162e-01 0.0000000000000000e+00  1.2815411048744083e+00 -5.8168138080127191e-02 0.0000000000000000e+00  1.2750686537309475e+00 1.8706984885385694e-01 0.0000000000000000e+00  1.7121818350555646e+00 -2.5446363384829584e-01 0.0000000000000000e+00  1.3050710262715179e+00 1.2038409834016681e-01 0.0000000000000000e+00  1.5590459734668749e+00 4.3661132587302298e-01 0.0000000000000000e+00  9.3616368680176121e-01 1.0556871056524701e-02 0.0000000000000000e+00  2.0838165900679777e+00 -2.2144662055794975e-01 0.0000000000000000e+00  -4.8849660263163730e-02 2.0808824856234120e-01 0.0000000000000000e+00  1.3776080893914033e+00 -3.9263521811966406e-02 0.0000000000000000e+00  1.5982089010621467e+00 4.0648744660613917e-01 0.0000000000000000e+00  1.7523829438652854e+00 4.0594581993221684e-01 0.0000000000000000e+00  1.4036948512544525e+00 -3.2149179283810986e-01 0.0000000000000000e+00  9.8009652535287428e-01 -2.3228227577817315e-02 0.0000000000000000e+00  1.3669612256305526e+00 -2.0906119695007674e-01 0.0000000000000000e+00  1.4601455064803299e+00 1.8168241860164711e-01 0.0000000000000000e+00  1.5952055163193641e+00 -8.3105365647792945e-02 0.0000000000000000e+00  6.0428020399574123e-02 2.3605733622306996e-01 0.0000000000000000e+00  1.2649183929835230e+00 -2.9685232196916805e-01 0.0000000000000000e+00  1.4900541077776530e+00 -7.5240521419344064e-01 0.0000000000000000e+00  1.4618665214017457e+00 -1.5669328664600513e-01 0.0000000000000000e+00  8.3000806976564967e-01 -8.4102977076700891e-02 0.0000000000000000e+00  1.2074163905346251e+00 -4.2983352458985484e-02 0.0000000000000000e+00  9.2214850408718463e-01 1.0300918097857248e-02 0.0000000000000000e+00  1.3437262351099917e+00 -1.9571817147027387e-01 0.0000000000000000e+00  1.9183114601197997e+00 1.8485092481219828e-01 0.0000000000000000e+00  8.5005831150763755e-01 1.4365724914824204e-01 0.0000000000000000e+00  1.0518232748145220e+00 -2.2391932476852089e-01 0.0000000000000000e+00  9.3356431995599209e-01 -1.4441287386577120e-01 0.0000000000000000e+00  -3.6221135901422113e-01 2.6954226222181538e-01 0.0000000000000000e+00  -4.5923399207989858e-02 3.3202615802800384e-01 0.0000000000000000e+00  1.0015804282748846e+00 2.1830572227962883e-03 0.0000000000000000e+00  9.2013538783886106e-01 -5.8728715461824699e-03 0.0000000000000000e+00  1.1102394934660831e+00 -6.2508306503297029e-02 0.0000000000000000e+00  1.5280004365578286e+00 4.9496657609876885e-02 0.0000000000000000e+00  3.1927966640569105e-01 -4.4451315890870918e-01 0.0000000000000000e+00  7.7629394117254924e-01 -2.6633478480456760e-02 0.0000000000000000e+00  1.5067261017310127e+00 2.1816355404869481e-02 0.0000000000000000e+00  8.3620684786454547e-01 -4.8795624412295169e-03 0.0000000000000000e+00  -8.4411428204346856e-02 1.8201133132297551e-01 0.0000000000000000e+00  7.9715661585574360e-01 5.9423122148415150e-02 0.0000000000000000e+00  7.8049275066544510e-01 5.0061252442996793e-02 0.0000000000000000e+00  1.1183296986518163e+00 1.1682200334221189e+00 0.0000000000000000e+00  1.6980349932665562e+00 9.7924410979279641e-01 0.0000000000000000e+00  4.6288819644591844e-01 6.9209109430801763e-01 0.0000000000000000e+00  3.0201107402778982e-01 -2.0834098114176583e-01 0.0000000000000000e+00  7.4481725488099726e-01 7.8072584546991369e-02 0.0000000000000000e+00  -3.9252212225890995e-02 5.6175407350537450e-02 0.0000000000000000e+00  1.4447051344406137e+00 3.7571869111225797e-01 0.0000000000000000e+00  -5.2001166098842477e-02 -5.5651658981718817e-02 0.0000000000000000e+00  -2.9003730290990508e-02 4.2793295247256627e-02 0.0000000000000000e+00  1.3613597482187276e+00 -1.9504470020392045e-02 0.0000000000000000e+00  1.1790356581306760e+00 -1.4005335507728863e-03 0.0000000000000000e+00  7.3104157093559430e-01 -9.5596820165536123e-01 0.0000000000000000e+00  9.8566943241390104e-01 6.6267535085273666e-02 0.0000000000000000e+00  6.1198258727881005e-01 5.3576438176436397e-02 0.0000000000000000e+00  6.7115306226194793e-01 7.7542519793304385e-02 0.0000000000000000e+00  8.6502683335840203e-01 -4.7772418356754789e-02 0.0000000000000000e+00  1.3708389911661059e+00 -4.4940075099524734e-01 0.0000000000000000e+00  1.0801360827474580e+00 7.9152703972419824e-01 0.0000000000000000e+00  4.7843859183977411e-01 2.8606993060064870e-02 0.0000000000000000e+00  6.5246005731690115e-01 -4.8124684694897807e-02 0.0000000000000000e+00  -1.8560046499227942e-01 1.3928348616923286e-01 0.0000000000000000e+00  8.8748404268363967e-01 -1.2375537831051804e-02 0.0000000000000000e+00  1.4793546470746493e+00 1.2106929083526803e-01 0.0000000000000000e+00  5.9928340210920938e-01 1.1863696765263866e-02 0.0000000000000000e+00  1.9042748015396578e+00 1.1617709486408220e-01 0.0000000000000000e+00  1.4589259439089546e+00 -6.5090430219428971e-03 0.0000000000000000e+00  1.5961130845645051e+00 5.9630254961365803e-01 0.0000000000000000e+00  9.8081241719278200e-01 -1.5607121826675563e-01 0.0000000000000000e+00  1.4674264632749889e+00 -1.3137808387442712e-01 0.0000000000000000e+00  1.7504015396154373e+00 -1.8341800132694902e-01 0.0000000000000000e+00  1.4482387523295603e+00 1.4830653186860705e-02 0.0000000000000000e+00  1.5987101232505598e+00 -3.2211936605374358e-01 0.0000000000000000e+00  1.0451357286750520e+00 -1.2997494417996358e-01 0.0000000000000000e+00  7.9660204679625612e-01 -4.2639233626616208e-01 0.0000000000000000e+00  1.0800378948494138e+00 -2.4835014432095262e-01 0.0000000000000000e+00  1.4586423672712474e+00 -7.2878777766420388e-01 0.0000000000000000e+00  6.7331886741215174e-01 1.8016013349379678e-01 0.0000000000000000e+00  1.2911033869289752e+00 2.3273224918864083e