<?xml version="1.0"?>
<VTKFile type="UnstructuredGrid"  version="0.1"  >
<UnstructuredGrid>
<Piece  NumberOfPoints="3852" NumberOfCells="7360">
<Points>
<DataArray  type="Float64"  NumberOfComponents="3"  format="ascii">0 0 0  0 0.41 0  2.2 0.41 0  2.2 0 0  0.2 0.15 0  0.15 0.2 0  0.2 0.25 0  0.25 0.2 0  0.2097545161007899 0.1509607359798352 0  0.219134171618224 0.153806023374423 0  0.2277785116509268 0.1584265193848371 0  0.2353553390592504 0.1646446609405956 0  0.2415734806150793 0.1722214883489481 0  0.2461939766255306 0.1808658283816641 0  0.249039264020151 0.1902454838991403 0  0.2490392640201666 0.2097545161007811 0  0.2461939766255869 0.2191341716182 0  0.2415734806151802 0.2277785116509009 0  0.2353553390594108 0.235355339059244 0  0.2277785116510524 0.2415734806150789 0  0.2191341716182962 0.2461939766255471 0  0.209754516100834 0.2490392640201561 0  0.1902454838992189 0.2490392640201666 0  0.1808658283818 0.2461939766255869 0  0.1722214883490991 0.2415734806151802 0  0.164644660940756 0.2353553390594108 0  0.1584265193849211 0.2277785116510524 0  0.1538060233744529 0.2191341716182962 0  0.150960735979844 0.209754516100834 0  0.1509607359798352 0.1902454838992101 0  0.153806023374423 0.180865828381776 0  0.1584265193848371 0.1722214883490732 0  0.1646446609405956 0.1646446609407496 0  0.1722214883489481 0.1584265193849207 0  0.1808658283816641 0.1538060233744694 0  0.1902454838991403 0.150960735979849 0  0.09999999999980318 0 0  0.1999999999996354 0 0  0.2999999999994593 0 0  0.3999999999991452 0 0  0.4999999999988309 0 0  0.599999999998495 0 0  0.6999999999982023 0 0  0.7999999999979096 0 0  0.8999999999975735 0 0  0.9999999999972848 0 0  1.099999999997053 0 0  1.199999999997309 0 0  1.299999999997566 0 0  1.399999999997821 0 0  1.49999999999809 0 0  1.599999999998377 0 0  1.69999999999859 0 0  1.799999999998877 0 0  1.899999999999145 0 0  1.999999999999386 0 0  2.099999999999693 0 0  2.2 0.08199999999981657 0  2.2 0.1639999999995688 0  2.2 0.2459999999995603 0  2.2 0.327999999999785 0  2.100000000000048 0.41 0  2.000000000000269 0.41 0  1.900000000000422 0.41 0  1.800000000000679 0.41 0  1.700000000000931 0.41 0  1.600000000001326 0.41 0  1.500000000001665 0.41 0  1.400000000002032 0.41 0  1.300000000002395 0.41 0  1.200000000002644 0.41 0  1.100000000002865 0.41 0  1.000000000002617 0.41 0  0.900000000002368 0.41 0  0.8000000000021192 0.41 0  0.7000000000018587 0.41 0  0.6000000000015786 0.41 0  0.5000000000013736 0.41 0  0.4000000000010933 0.41 0  0.3000000000008329 0.41 0  0.2000000000005997 0.41 0  0.1000000000003003 0.41 0  0 0.3280000000001975 0  0 0.2460000000004372 0  0 0.1640000000004437 0  0 0.08200000000021695 0  0.439039350479032 0.2235433210862024 0  0.3557293424662716 0.1539377961885917 0  0.3450132387946972 0.2399891502764809 0  0.2900756359792848 0.08507884665974728 0  0.2884413411145515 0.3059878288466324 0  0.2102195502178943 0.3385267178242456 0  0.137328909169326 0.3152847369018352 0  0.08490385663776813 0.2628976192695439 0  0.08063302347471875 0.188368977740952 0  0.1005937615311739 0.1162460982751979 0  0.1621860847198582 0.08598327887900903 0  0.3012864586130264 0.1926027915888804 0  1.999140000000448 0.2049999999995642 0  0.2742354912953259 0.1572259708446958 0  0.2871471664627305 0.2264358039321654 0  0.6542851578645765 0.1981889790488746 0  0.2651366296338276 0.2534562504463119 0  0.2371819217149928 0.0977949043027586 0  1.651678197071202 0.2145186615851206 0  1.349674714201118 0.2086119645070391 0  0.9627539291831038 0.2056711800839285 0  0.2360880502985623 0.2733043913425156 0  1.159884231859056 0.2050429640239795 0  0.2502927927237266 0.1358797630898622 0  0.2080582834123368 0.2835355213895352 0  0.1805439632603489 0.278338480667804 0  0.1486243506827335 0.2626014098227327 0  0.1266658889266303 0.2392753516137401 0  0.1179814841582247 0.2069380844236527 0  0.1225167704961566 0.1764957192948648 0  0.1357996569043286 0.1472158045151807 0  0.1619764829264572 0.126298308975886 0  0.1935640279204225 0.116654032325456 0  1.82457000000085 0.2346439024393236 0  0.8027657238591595 0.149277802568535 0  1.498563450727992 0.2632867809910664 0  0.2770405925201826 0.1924926016722167 0  0.470924801584011 0.09138612536042019 0  0.550693598792917 0.2898604497866635 0  0.381089831438127 0.3238078833671811 0  2.074516462495042 0.125705772324225 0  2.083599037046577 0.2769549245607841 0  0.2692296340100125 0.2210592970306522 0  0.7614733075682367 0.2839235561638241 0  1.536698221979284 0.1258192462655419 0  1.231809489345021 0.1282542717942667 0  1.054759157670174 0.1242749934189342 0  1.754535566851005 0.1223197024158991 0  1.90452621597739 0.1324728094649104 0  0.2672409321155211 0.178737994598723 0  1.254401531996246 0.2902808614622134 0  1.04350934597445 0.2986664252663559 0  0.0749710792305778 0.3208721925318313 0  0.5425289614095572 0.165152457827861 0  0.1663208394680799 0.2644065126118989 0  0.1471335176887868 0.2433864007787126 0  0.1345556779484054 0.219852318055334 0  0.131940483167677 0.1932967226753857 0  0.1941574795820069 0.2685534232066453 0  0.2226696214021025 0.1252682734732412 0  0.2193882214552426 0.2661718674478616 0  0.1396865053227576 0.1677617654469802 0  0.8749487631478475 0.295170577255529 0  1.424301820545763 0.1157348858866879 0  1.918515045506933 0.2902236143624367 0  1.744876807925144 0.306628844405037 0  0.2443979144126529 0.254353837216211 0  0.2569054246570621 0.2306780201523878 0  0.2632507216716993 0.2062296523407826 0  0.4609453431326088 0.3138128990490959 0  0.3578015395476809 0.08253318517696946 0  0.2529777826635333 0.155582948480283 0  0.1580369715200277 0.1487041474358234 0  0.652872088668587 0.3101079993636056 0  0.297147332491062 0.2558065812325378 0  0.6188247313471635 0.1101603945467571 0  0.8951149554961688 0.1123812542864208 0  1.592749166085722 0.2985190085719691 0  1.40420309431358 0.2992155383468256 0  1.649189110727275 0.1000387439201274 0  0.2301663900864273 0.1432830242131801 0  0.2064839406544439 0.1345771465164309 0  0.2548204572493643 0.1702022465417566 0  0.1606700828011604 0.2481621709908606 0  0.2605987457303776 0.1928909671966518 0  0.1826942838524941 0.2594610608897559 0  0.1456438338561037 0.2290651013631561 0  0.1387681034994896 0.2058679665896095 0  1.140902260384949 0.3081952438204152 0  2.123402621966431 0.2039515281261525 0  0.7272188829630218 0.1047469619375249 0  0.2060868819369127 0.2616331638469837 0  0.246763614216289 0.2411610007697902 0  0.1405961691450822 0.1819800466423126 0  1.149638048863541 0.08264492713269313 0  0.1809997740285721 0.1365020267363126 0  1.993198408221569 0.09755938404998035 0  0.2287111352430851 0.2547015941619741 0  0.3818716699056283 0.2060398770290832 0  0.39147508084147 0.2656155699545688 0  0.151201080877373 0.1608659990301362 0  0.0542521118046473 0.1382221876243976 0  0.06190301158313444 0.0685934933767465 0  1.317316039400266 0.1015983144534349 0  0.2176417279723976 0.1415790407114221 0  0.2401571300978209 0.1529210337009423 0  0.2618092962776011 0.3566662607419938 0  0.1941527094396574 0.1377969918002053 0  0.9590486261329707 0.3255353063371385 0  0.1708201090411339 0.1447474051814825 0  1.837592370686806 0.3302992722413595 0  0.3197015570210796 0.1212159119695666 0  0.4155281956943757 0.1409543952531078 0  0.0549491513262805 0.2307535706287103 0  0.1668210562270142 0.3605647861782867 0  0.2854688902460447 0.2093700809023571 0  2.013251581901814 0.3292746985146142 0  0.1192191106244758 0.2809901915857802 0  0.2487958366614321 0.04556523514103697 0  0.09061021186838321 0.2240174335271237 0  1.737143840576958 0.20912817770623 0  0.04515017012776967 0.2784708690411318 0  0.5347554646753627 0.08988970780599832 0  0.977104673723579 0.08241628541188413 0  0.336509991617897 0.2888965225844298 0  0.2569238041969055 0.2173711314485607 0  1.906541186051535 0.2125389476829634 0  0.1762338839607841 0.3102437166134606 0  1.449268841077636 0.201011295143529 0  0.8555371485878378 0.2099663446585434 0  1.837208236203613 0.07556229833764837 0  1.264402545318887 0.1992523923163096 0  1.068181074047183 0.2155119107017876 0  0.3158931250274742 0.3421721218291775 0  0.2731958384900449 0.2373435058667565 0  0.09875906484220501 0.1533097574901186 0  0.7355755433976705 0.2066339904079041 0  1.567440499207928 0.2049999999995983 0  1.329829828222916 0.3295825481537897 0  0.8214190147401245 0.07894167681990104 0  1.525459989258997 0.3394220200696043 0  0.1990897327079506 0.06300531675246424 0  0.244701762210989 0.3062404318132603 0  0.1033853772622983 0.3551443431224104 0  0.1178236825374896 0.07148041782551597 0  0.1558198999929474 0.04409380269139784 0  0.3389178979413869 0.198678920661321 0  0.310790717645908 0.2196004930752872 0  2.125022007676643 0.3402049371791425 0  2.130028889485561 0.06535501282233655 0  0.4821161335597635 0.1626909543876269 0  0.2838678108956019 0.1254276466262967 0  0.5062815929260498 0.2376271077316994 0  1.663059277092996 0.3422301118688678 0  1.82292665764828 0.1574809263836269 0  2.052538557905295 0.05717536030732174 0  0.3078251537889645 0.16056368457456 0  0.8108267070172145 0.3390047366820738 0  1.487254632568403 0.0703866281621833 0  0.155004430757041 0.2369517702015699 0  0.1725545045705267 0.2519594403466565 0  0.1445581653510352 0.2167994984574706 0  0.1420710285613199 0.1942747855116325 0  1.461861739291679 0.3471998553985149 0  0.2372128969196007 0.2453440460936858 0  0.1943665918892754 0.2580518465884657 0  0.2452139232912363 0.1629124725160763 0  0.2555786751481889 0.1825885041235872 0  2.14640473333793 0.2790222779730848 0  2.145589594789407 0.1282024626544199 0  0.1486651579751984 0.1726583296292201 0  0.550000000001476 0.3603327897285098 0  0.0505668771231032 0.3660023622363767 0  1.049999999997169 0.05217028468202135 0  1.244771793631775 0.05744029386223062 0  0.1356759337238615 0.1094447816941579 0  0.5872326411628903 0.2223148728195226 0  0.2168458206248643 0.2558159203714847 0  1.749999999998732 0.05166028789524129 0  0.2855257256666041 0.1763246086558152 0  1.92
[...]
<PointData  Vectors="f_22"> 
<DataArray  type="Float64"  Name="f_22"  NumberOfComponents="3" format="ascii">0.0000000000000000e+00 0.0000000000000000e+00 0.0000000000000000e+00  0.0000000000000000e+00 0.0000000000000000e+00 0.0000000000000000e+00  0.0000000000000000e+00 0.0000000000000000e+00 0.0000000000000000e+00  0.0000000000000000e+00 0.0000000000000000e+00 0.0000000000000000e+00  0.0000000000000000e+00 0.0000000000000000e+00 0.0000000000000000e+00  0.0000000000000000e+00 0.0000000000000000e+00 0.0000000000000000e+00  0.0000000000000000e+00 0.0000000000000000e+00 0.0000000000000000e+00  0.0000000000000000e+00 0.0000000000000000e+00 0.0000000000000000e+00  0.0000000000000000e+00 0.0000000000000000e+00 0.0000000000000000e+00  0.0000000000000000e+00 0.0000000000000000e+00 0.0000000000000000e+00  0.0000000000000000e+00 0.0000000000000000e+00 0.0000000000000000e+00  0.0000000000000000e+00 0.0000000000000000e+00 0.0000000000000000e+00  0.0000000000000000e+00 0.0000000000000000e+00 0.0000000000000000e+00  0.0000000000000000e+00 0.0000000000000000e+00 0.0000000000000000e+00  0.0000000000000000e+00 0.0000000000000000e+00 0.0000000000000000e+00  0.0000000000000000e+00 0.0000000000000000e+00 0.0000000000000000e+00  0.0000000000000000e+00 0.0000000000000000e+00 0.0000000000000000e+00  0.0000000000000000e+00 0.0000000000000000e+00 0.0000000000000000e+00  0.0000000000000000e+00 0.0000000000000000e+00 0.0000000000000000e+00  0.0000000000000000e+00 0.0000000000000000e+00 0.0000000000000000e+00  0.0000000000000000e+00 0.0000000000000000e+00 0.0000000000000000e+00  0.0000000000000000e+00 0.0000000000000000e+00 0.0000000000000000e+00  0.0000000000000000e+00 0.0000000000000000e+00 0.0000000000000000e+00  0.0000000000000000e+00 0.0000000000000000e+00 0.0000000000000000e+00  0.0000000000000000e+00 0.0000000000000000e+00 0.0000000000000000e+00  0.0000000000000000e+00 0.0000000000000000e+00 0.0000000000000000e+00  0.0000000000000000e+00 0.0000000000000000e+00 0.0000000000000000e+00  0.0000000000000000e+00 0.0000000000000000e+00 0.0000000000000000e+00  0.0000000000000000e+00 0.0000000000000000e+00 0.0000000000000000e+00  0.0000000000000000e+00 0.0000000000000000e+00 0.0000000000000000e+00  0.0000000000000000e+00 0.0000000000000000e+00 0.0000000000000000e+00  0.0000000000000000e+00 0.0000000000000000e+00 0.0000000000000000e+00  0.0000000000000000e+00 0.0000000000000000e+00 0.0000000000000000e+00  0.0000000000000000e+00 0.0000000000000000e+00 0.0000000000000000e+00  0.0000000000000000e+00 0.0000000000000000e+00 0.0000000000000000e+00  0.0000000000000000e+00 0.0000000000000000e+00 0.0000000000000000e+00  0.0000000000000000e+00 0.0000000000000000e+00 0.0000000000000000e+00  0.0000000000000000e+00 0.0000000000000000e+00 0.0000000000000000e+00  0.0000000000000000e+00 0.0000000000000000e+00 0.0000000000000000e+00  0.0000000000000000e+00 0.0000000000000000e+00 0.0000000000000000e+00  0.0000000000000000e+00 0.0000000000000000e+00 0.0000000000000000e+00  0.0000000000000000e+00 0.0000000000000000e+00 0.0000000000000000e+00  0.0000000000000000e+00 0.0000000000000000e+00 0.0000000000000000e+00  0.0000000000000000e+00 0.0000000000000000e+00 0.0000000000000000e+00  0.0000000000000000e+00 0.0000000000000000e+00 0.0000000000000000e+00  0.0000000000000000e+00 0.0000000000000000e+00 0.0000000000000000e+00  0.0000000000000000e+00 0.0000000000000000e+00 0.0000000000000000e+00  0.0000000000000000e+00 0.0000000000000000e+00 0.0000000000000000e+00  0.0000000000000000e+00 0.0000000000000000e+00 0.0000000000000000e+00  0.0000000000000000e+00 0.0000000000000000e+00 0.0000000000000000e+00  0.0000000000000000e+00 0.0000000000000000e+00 0.0000000000000000e+00  0.0000000000000000e+00 0.0000000000000000e+00 0.0000000000000000e+00  0.0000000000000000e+00 0.0000000000000000e+00 0.0000000000000000e+00  0.0000000000000000e+00 0.0000000000000000e+00 0.0000000000000000e+00  0.0000000000000000e+00 0.0000000000000000e+00 0.0000000000000000e+00  0.0000000000000000e+00 0.0000000000000000e+00 0.0000000000000000e+00  0.0000000000000000e+00 0.0000000000000000e+00 0.0000000000000000e+00  8.2308774779147387e-01 -4.5339849148943762e-02 0.0000000000000000e+00  1.2521334397996748e+00 -5.0082724090246021e-02 0.0000000000000000e+00  1.5974397575407173e+00 -9.3508325940137915e-02 0.0000000000000000e+00  1.1115067252743707e+00 -4.9033721655695250e-02 0.0000000000000000e+00  0.0000000000000000e+00 0.0000000000000000e+00 0.0000000000000000e+00  0.0000000000000000e+00 0.0000000000000000e+00 0.0000000000000000e+00  0.0000000000000000e+00 0.0000000000000000e+00 0.0000000000000000e+00  0.0000000000000000e+00 0.0000000000000000e+00 0.0000000000000000e+00  0.0000000000000000e+00 0.0000000000000000e+00 0.0000000000000000e+00  0.0000000000000000e+00 0.0000000000000000e+00 0.0000000000000000e+00  0.0000000000000000e+00 0.0000000000000000e+00 0.0000000000000000e+00  0.0000000000000000e+00 0.0000000000000000e+00 0.0000000000000000e+00  0.0000000000000000e+00 0.0000000000000000e+00 0.0000000000000000e+00  0.0000000000000000e+00 0.0000000000000000e+00 0.0000000000000000e+00  0.0000000000000000e+00 0.0000000000000000e+00 0.0000000000000000e+00  0.0000000000000000e+00 0.0000000000000000e+00 0.0000000000000000e+00  0.0000000000000000e+00 0.0000000000000000e+00 0.0000000000000000e+00  0.0000000000000000e+00 0.0000000000000000e+00 0.0000000000000000e+00  0.0000000000000000e+00 0.0000000000000000e+00 0.0000000000000000e+00  0.0000000000000000e+00 0.0000000000000000e+00 0.0000000000000000e+00  0.0000000000000000e+00 0.0000000000000000e+00 0.0000000000000000e+00  0.0000000000000000e+00 0.0000000000000000e+00 0.0000000000000000e+00  0.0000000000000000e+00 0.0000000000000000e+00 0.0000000000000000e+00  0.0000000000000000e+00 0.0000000000000000e+00 0.0000000000000000e+00  0.0000000000000000e+00 0.0000000000000000e+00 0.0000000000000000e+00  9.6000005120342069e-01 0.0000000000000000e+00 0.0000000000000000e+00  1.4400000768064531e+00 0.0000000000000000e+00 0.0000000000000000e+00  1.4400000768090317e+00 0.0000000000000000e+00 0.0000000000000000e+00  9.6000005120706011e-01 0.0000000000000000e+00 0.0000000000000000e+00  2.0106922634782357e-01 7.4251976755952021e-01 0.0000000000000000e+00  1.1026156395782467e+00 5.7684776377964223e-02 0.0000000000000000e+00  -1.3656611653687811e-01 -4.8823583936953563e-01 0.0000000000000000e+00  1.8531014699759740e+00 1.4963224688116759e-02 0.0000000000000000e+00  1.8390458985041249e+00 -5.0859723182954612e-02 0.0000000000000000e+00  1.4232775321379199e+00 1.6329885338453071e-01 0.0000000000000000e+00  1.3118424858383093e+00 3.2780286242632811e-01 0.0000000000000000e+00  1.3327509662449861e+00 2.5112824359137342e-01 0.0000000000000000e+00  1.3081943669025085e+00 -7.8474575870692856e-02 0.0000000000000000e+00  1.2677411284927571e+00 -3.2853111282230107e-01 0.0000000000000000e+00  1.4170956391295630e+00 -3.7636412917757195e-01 0.0000000000000000e+00  -2.1379205547855315e-01 -4.4481182448349627e-01 0.0000000000000000e+00  1.5477380059918686e+00 3.0510340616560327e-01 0.0000000000000000e+00  1.2936468304463802e-01 -2.0942279059805730e-01 0.0000000000000000e+00  -2.0867353196281840e-01 -1.6917967419500204e-01 0.0000000000000000e+00  1.3995162249581936e+00 -5.7150149028167474e-01 0.0000000000000000e+00  4.6672542491371682e-01 -2.1477319232592034e-02 0.0000000000000000e+00  1.9050745001977467e+00 -2.0838150201711522e-01 0.0000000000000000e+00  1.5216859174337294e+00 2.6771192656671622e-01 0.0000000000000000e+00  1.5806330796574195e+00 -3.7227447177181239e-01 0.0000000000000000e+00  1.7577806247176802e+00 -3.4150209227966727e-01 0.0000000000000000e+00  1.8686826178754765e+00 1.2748768620559350e-01 0.0000000000000000e+00  1.5988601540709149e+00 3.8806509121191646e-01 0.0000000000000000e+00  9.8906114018627500e-01 -5.7496317600481003e-02 0.0000000000000000e+00  2.0169346429391348e+00 3.6919981532834206e-01 0.0000000000000000e+00  1.8804367369301707e+00 6.0224208505994203e-01 0.0000000000000000e+00  1.4983086622595272e+00 7.5233433182603193e-01 0.0000000000000000e+00  1.1473295627738809e+00 5.4218604189706165e-01 0.0000000000000000e+00  9.4111908860905713e-01 8.5828261871943382e-02 0.0000000000000000e+00  9.9154964503090492e-01 -4.1868694627349862e-01 0.0000000000000000e+00  1.3041782920721960e+00 -7.1765927969981280e-01 0.0000000000000000e+00  1.6700331368503265e+00 -7.3020064272694418e-01 0.0000000000000000e+00  1.9350306795962104e+00 -5.2781405448929331e-01 0.0000000000000000e+00  1.4965906538689173e+00 -3.4042118731174331e-01 0.0000000000000000e+00  1.5045824743395804e+00 5.7077069589150708e-01 0.0000000000000000e+00  1.3788032743925438e+00 -3.4593720596444354e-02 0.0000000000000000e+00  -1.3178440478534173e-01 -2.9747525483977028e-01 0.0000000000000000e+00  1.1888397308421459e+00 2.6283338746259222e-01 0.0000000000000000e+00  1.8425142134065069e+00 -5.5007718396385052e-01 0.0000000000000000e+00  1.5664817300696117e+00 -3.8842541019673132e-02 0.0000000000000000e+00  1.1574258071387862e+00 1.1243434785632635e-01 0.0000000000000000e+00  1.4301738836567282e+00 2.6444341896626111e-01 0.0000000000000000e+00  -1.4323452914893903e-01 -5.3840378593787402e-02 0.0000000000000000e+00  7.3198800022494259e-01 2.7509654973515807e-01 0.0000000000000000e+00  1.4700778764275819e+00 3.3235290690065133e-01 0.0000000000000000e+00  1.1787074610274340e+00 4.1844136339305044e-01 0.0000000000000000e+00  1.3322324419482088e+00 -3.1225764522021765e-01 0.0000000000000000e+00  1.1438862300296055e+00 -2.8010440391445640e-01 0.0000000000000000e+00  1.4596825464791130e+00 -2.7486120766862548e-02 0.0000000000000000e+00  -4.4732215910974003e-02 -2.8470051946776126e-01 0.0000000000000000e+00  1.2738603325935254e+00 4.1494390826746913e-01 0.0000000000000000e+00  1.0359945543745492e+00 -3.0901677063629035e-01 0.0000000000000000e+00  1.0780035492158504e+00 1.6521087584099733e-01 0.0000000000000000e+00  5.8450374432414021e-01 2.0103443772082510e-01 0.0000000000000000e+00  1.7575559741594893e+00 8.3323371985100891e-01 0.0000000000000000e+00  1.2353153267758201e+00 9.2575939727102619e-01 0.0000000000000000e+00  7.5839520966201412e-01 4.8988525875761224e-01 0.0000000000000000e+00  6.4956721075189339e-01 -2.2211430426364079e-01 0.0000000000000000e+00  2.0633744764515995e+00 5.5628504168753912e-01 0.0000000000000000e+00  1.9718228745847317e+00 -2.9254626132456318e-01 0.0000000000000000e+00  1.6455909416949250e+00 1.6539745561457264e-01 0.0000000000000000e+00  9.7801168540850791e-01 -8.2415557011028395e-01 0.0000000000000000e+00  1.4064628376561554e+00 1.1071783993515175e-01 0.0000000000000000e+00  1.1775725439078035e+00 -4.0079207304258230e-01 0.0000000000000000e+00  1.1407307785276188e+00 -2.0372863898078773e-02 0.0000000000000000e+00  1.2924192178608291e+00 -2.3653186305583676e-01 0.0000000000000000e+00  4.2098001545740638e-01 1.1555308566613687e-02 0.0000000000000000e+00  -7.3434046009592024e-02 7.0821989466149704e-02 0.0000000000000000e+00  -7.9686173844915609e-02 -1.2150568545299795e-01 0.0000000000000000e+00  1.7908613306335679e+00 -7.1438003169577116e-02 0.0000000000000000e+00  1.7572147468341004e+00 2.8235121377296701e-01 0.0000000000000000e+00  -1.5408114817610383e-02 -9.3044104867398739e-02 0.0000000000000000e+00  1.5345076324261109e+00 -1.0638292361487693e+00 0.0000000000000000e+00  1.0181199758056991e+00 -7.7386916269656408e-02 0.0000000000000000e+00  6.7504934494875468e-01 -2.2346041945927655e-01 0.0000000000000000e+00  8.8828628827009604e-01 -3.2004487584056224e-01 0.0000000000000000e+00  7.2548159747172369e-01 2.7584736791432968e-01 0.0000000000000000e+00  1.0761173949766429e+00 3.6284887367345187e-01 0.0000000000000000e+00  1.1525082518838494e+00 -3.0921516351631062e-01 0.0000000000000000e+00  9.3381767923791648e-01 2.2088817009133008e-01 0.0000000000000000e+00  4.5262070936540205e-01 -3.8826984289880337e-02 0.0000000000000000e+00  1.7521519053023225e+00 -3.4413148801359944e-01 0.0000000000000000e+00  -5.2168123104885451e-02 -1.5413524712000684e-01 0.0000000000000000e+00  1.5190267947429161e+00 1.1023162717134019e+00 0.0000000000000000e+00  -4.6504367037565331e-02 -1.8747227738642833e-01 0.0000000000000000e+00  1.9323737092923461e+00 7.5755386730166774e-01 0.0000000000000000e+00  8.3818936786207621e-01 9.0292626722294389e-01 0.0000000000000000e+00  4.2949407278152629e-01 1.7181179170556873e-01 0.0000000000000000e+00  7.4284938988899585e-01 1.1327760257047383e-01 0.0000000000000000e+00  1.4816347706840793e+00 1.2784857325780882e-01 0.0000000000000000e+00  1.6864960835523093e+00 3.3190292435845681e-01 0.0000000000000000e+00  1.5226626233483396e+00 2.2810353473877548e-01 0.0000000000000000e+00  -1.5721046688459313e-02 8.3321534162802954e-02 0.0000000000000000e+00  6.0404238483617811e-01 -6.5854321042179553e-01 0.0000000000000000e+00  1.0717002480702922e+00 1.3237593958446284e-01 0.0000000000000000e+00  1.9714007529110351e+00 -8.1159467631302762e-01 0.0000000000000000e+00  1.1436041452068646e+00 1.8993357732949789e-01 0.0000000000000000e+00  4.1864919586272048e-01 -1.9117542316759394e-03 0.0000000000000000e+00  -1.2725835678900974e-01 -7.9906068843403517e-03 0.0000000000000000e+00  6.8176612846008511e-01 -7.7071252969675763e-02 0.0000000000000000e+00  1.1824383762149899e+00 -1.1132282746999089e+00 0.0000000000000000e+00  1.3203503163437758e+00 -1.3340010285740914e-01 0.0000000000000000e+00  8.8291175555767043e-01 -1.0953756858800814e-01 0.0000000000000000e+00  7.3785559037747894e-01 -1.1919277033174940e-01 0.0000000000000000e+00  7.3433118981019463e-01 -6.2776686363002807e-02 0.0000000000000000e+00  -1.0326506685608557e-02 -5.2877312927336780e-02 0.0000000000000000e+00  1.3036748111558925e+00 2.2320407269466932e-02 0.0000000000000000e+00  1.8270450859730918e+00 -5.2153373891061328e-01 0.0000000000000000e+00  1.0989271455740637e+00 -1.0187689763755614e-01 0.0000000000000000e+00  1.7975935233629408e+00 -1.0174198886418129e+00 0.0000000000000000e+00  8.3282933711118767e-01 -1.0716067541914463e-01 0.0000000000000000e+00  1.9279674812221881e+00 1.0417127057634976e-01 0.0000000000000000e+00  1.7434179551078957e+00 8.7999883510480126e-01 0.0000000000000000e+00  1.4147562446954076e+00 8.6258564131591636e-02 0.0000000000000000e+00  1.0091088553382299e+00 1.3955361961819954e-01 0.0000000000000000e+00  -2.5028914339989472e-01 -2.5007327535785934e-01 0.0000000000000000e+00  8.6109165695277967e-01 1.3783557544321154e-01 0.0000000000000000e+00  1.3640601733102757e+00 4.1806885831563961e-01 0.0000000000000000e+00  1.3195621721395607e+00 -4.8830430001997785e-02 0.0000000000000000e+00  1.2719605773546776e+00 1.5588468989133847e-01 0.0000000000000000e+00  1.5086257572786470e+00 -1.8379378366174673e-01 0.0000000000000000e+00  1.3040456132661336e+00 1.1533963096982985e-01 0.0000000000000000e+00  1.0152564941293001e+00 -1.0604698413701563e-01 0.0000000000000000e+00  6.1460279449798372e-01 -3.0148322433194041e-01 0.0000000000000000e+00  1.7082556560253543e+00 -1.9025065726455800e-01 0.0000000000000000e+00  -6.0643325870690767e-02 1.6289387301172915e-02 0.0000000000000000e+00  1.3944600053886977e+00 -3.4926699028381990e-02 0.0000000000000000e+00  1.5724002206360372e+00 3.6388877664696495e-01 0.0000000000000000e+00  1.4926919956817577e+00 -3.2041741072863095e-01 0.0000000000000000e+00  1.4845331745737140e+00 4.4715908885113181e-01 0.0000000000000000e+00  9.6498944086405247e-01 -1.6716925920414649e-01 0.0000000000000000e+00  1.5183119133120582e+00 3.4265994784445103e-01 0.0000000000000000e+00  1.4109249007021571e+00 -3.2487939963073387e-01 0.0000000000000000e+00  1.4645605805726900e+00 -4.8784050661829094e-02 0.0000000000000000e+00  -2.6645243040512943e-02 -2.5903995024967059e-02 0.0000000000000000e+00  1.2742272256298497e+00 -3.2731294031103059e-01 0.0000000000000000e+00  1.4482179523002368e+00 -1.4479972938416871e-01 0.0000000000000000e+00  1.5608096168856547e+00 4.1227678393845424e-01 0.0000000000000000e+00  1.1341911273319436e+00 -1.5193621863533677e-01 0.0000000000000000e+00  8.3616938450235201e-01 6.2106143791513496e-02 0.0000000000000000e+00  5.4622188190443721e-01 1.4569057578771030e-01 0.0000000000000000e+00  1.3748051633820126e+00 -2.0660666991492685e-01 0.0000000000000000e+00  1.8555110643715915e+00 1.1656373256485270e-01 0.0000000000000000e+00  8.4269118251989106e-01 1.3058460766047095e-01 0.0000000000000000e+00  1.0611574661676801e+00 -2.3926197021454312e-01 0.0000000000000000e+00  9.5171139410459515e-01 -1.5463785530499119e-01 0.0000000000000000e+00  -2.7828953465179163e-01 -5.4922707042506314e-01 0.0000000000000000e+00  -3.6966938671181987e-01 -4.1304731088009705e-01 0.0000000000000000e+00  9.8942064145332709e-01 4.8490935379544388e-02 0.0000000000000000e+00  6.7465898072435415e-01 6.6292314689265566e-03 0.0000000000000000e+00  1.0497936793551619e+00 6.3643234280086547e-01 0.0000000000000000e+00  1.6549998491991247e+00 -3.3622746374139235e-02 0.0000000000000000e+00  1.1467510485543182e+00 2.4345165647920944e-01 0.0000000000000000e+00  1.0604054488073602e+00 4.4848968546950044e-03 0.0000000000000000e+00  1.4394320387017925e+00 -4.1403194235934931e-01 0.0000000000000000e+00  6.3335159217956349e-01 5.1089276196783544e-02 0.0000000000000000e+00  3.9374424736247010e-01 -3.1518252805349367e-01 0.0000000000000000e+00  9.4697315791178616e-01 1.4962083265022441e-01 0.0000000000000000e+00  1.0992718544549729e+00 6.9979985380901513e-02 0.0000000000000000e+00  1.0931298347186704e+00 1.1227648400858796e+00 0.0000000000000000e+00  1.6931747604652068e+00 9.5679119396134915e-01 0.0000000000000000e+00  4.4683914821451942e-01 6.2688453895745244e-01 0.0000000000000000e+00  3.0868693985892193e-01 -2.7945334478704331e-01 0.0000000000000000e+00  5.0885587699180157e-01 -1.1314778020518521e-01 0.0000000000000000e+00  1.2171219815198328e-02 4.4982364218910491e-02 0.0000000000000000e+00  1.5069219480715672e+00 3.6767239346087022e-01 0.0000000000000000e+00  -6.6201934874326560e-02 -7.0380263700131257e-02 0.0000000000000000e+00  -3.5037633181360647e-02 -1.5051666979457856e-01 0.0000000000000000e+00  1.5120341920485540e+00 6.0028115344648553e-02 0.0000000000000000e+00  1.0973838885446836e+00 5.6017228913213517e-03 0.0000000000000000e+00  7.5866575986740725e-01 -1.0166767167982256e+00 0.0000000000000000e+00  8.2851865211970099e-01 -1.4594155500658013e-01 0.0000000000000000e+00  6.1150755345765195e-01 5.1741682062731012e-02 0.0000000000000000e+00  9.0565472238354638e-01 -4.1128897907885750e-02 0.0000000000000000e+00  5.5720047749843105e-01 1.5030904432291275e-01 0.0000000000000000e+00  1.3901507994843121e+00 -4.7791331848884511e-01 0.0000000000000000e+00  1.6345420869047393e+00 -9.3815223992122798e-01 0.0000000000000000e+00  5.8115137415287466e-01 6.5696721336141921e-03 0.0000000000000000e+00  4.8460908263279684e-01 -1.1685099301433144e-01 0.0000000000000000e+00  -7.8227935276538943e-03 -3.5971245226960963e-01 0.0000000000000000e+00  9.6732116913708532e-01 8.5466689262850823e-02 0.0000000000000000e+00  1.0997380760861075e+00 2.2782460859403897e-01 0.0000000000000000e+00  7.6024206118184812e-01 1.0831821901161581e-01 0.0000000000000000e+00  1.9197771203377942e+00 3.5491006690663578e-03 0.0000000000000000e+00  1.4592564715889238e+00 -1.1563812059490768e-02 0.0000000000000000e+00  1.5770998781000543e+00 5.5377420214661477e-01 0.0000000000000000e+00  7.2385038894917553e-01 6.6024107367925397e-02 0.0000000000000000e+00  1.4297347065317374e+00 5.8529398388001176e-02 0.0000000000000000e+00  1.5002776645883491e+00 2.5038594864747521e-02 0.0000000000000000e+00  1.4180720660721500e+00 2.5111022551624229e-01 0.0000000000000000e+00  1.4603009538324068e+00 -2.2687717728832590e-01 0.0000000000000000e+00  1.0066790543057877e+00 -1.7539173996418782e-02 0.0000000000000000e+00  1.1187111765083764e+00 2.4984555937896399e-01 0.0000000000000000e+00  1.5287965971482245e+00 3.7474158938621521e-01 0.0000000000000000e+00  1.5129210617944771e+00 4.6862268942590479e-01 0.0000000000000000e+00  1.4034991185642274e+00 1.3514943088583337e-01 0.0000000000000000e+00  1.5184354395396635e+00 8.68