<?xml version="1.0"?>
<VTKFile type="UnstructuredGrid"  version="0.1"  >
<UnstructuredGrid>
<Piece  NumberOfPoints="3852" NumberOfCells="7360">
<Points>
<DataArray  type="Float64"  NumberOfComponents="3"  format="ascii">0 0 0  0 0.41 0  2.2 0.41 0  2.2 0 0  0.2 0.15 0  0.15 0.2 0  0.2 0.25 0  0.25 0.2 0  0.2097545161007899 0.1509607359798352 0  0.219134171618224 0.153806023374423 0  0.2277785116509268 0.1584265193848371 0  0.2353553390592504 0.1646446609405956 0  0.2415734806150793 0.1722214883489481 0  0.2461939766255306 0.1808658283816641 0  0.249039264020151 0.1902454838991403 0  0.2490392640201666 0.2097545161007811 0  0.2461939766255869 0.2191341716182 0  0.2415734806151802 0.2277785116509009 0  0.2353553390594108 0.235355339059244 0  0.2277785116510524 0.2415734806150789 0  0.2191341716182962 0.2461939766255471 0  0.209754516100834 0.2490392640201561 0  0.1902454838992189 0.2490392640201666 0  0.1808658283818 0.2461939766255869 0  0.1722214883490991 0.2415734806151802 0  0.164644660940756 0.2353553390594108 0  0.1584265193849211 0.2277785116510524 0  0.1538060233744529 0.2191341716182962 0  0.150960735979844 0.209754516100834 0  0.1509607359798352 0.1902454838992101 0  0.153806023374423 0.180865828381776 0  0.1584265193848371 0.1722214883490732 0  0.1646446609405956 0.1646446609407496 0  0.1722214883489481 0.1584265193849207 0  0.1808658283816641 0.1538060233744694 0  0.1902454838991403 0.150960735979849 0  0.09999999999980318 0 0  0.1999999999996354 0 0  0.2999999999994593 0 0  0.3999999999991452 0 0  0.4999999999988309 0 0  0.599999999998495 0 0  0.6999999999982023 0 0  0.7999999999979096 0 0  0.8999999999975735 0 0  0.9999999999972848 0 0  1.099999999997053 0 0  1.199999999997309 0 0  1.299999999997566 0 0  1.399999999997821 0 0  1.49999999999809 0 0  1.599999999998377 0 0  1.69999999999859 0 0  1.799999999998877 0 0  1.899999999999145 0 0  1.999999999999386 0 0  2.099999999999693 0 0  2.2 0.08199999999981657 0  2.2 0.1639999999995688 0  2.2 0.2459999999995603 0  2.2 0.327999999999785 0  2.100000000000048 0.41 0  2.000000000000269 0.41 0  1.900000000000422 0.41 0  1.800000000000679 0.41 0  1.700000000000931 0.41 0  1.600000000001326 0.41 0  1.500000000001665 0.41 0  1.400000000002032 0.41 0  1.300000000002395 0.41 0  1.200000000002644 0.41 0  1.100000000002865 0.41 0  1.000000000002617 0.41 0  0.900000000002368 0.41 0  0.8000000000021192 0.41 0  0.7000000000018587 0.41 0  0.6000000000015786 0.41 0  0.5000000000013736 0.41 0  0.4000000000010933 0.41 0  0.3000000000008329 0.41 0  0.2000000000005997 0.41 0  0.1000000000003003 0.41 0  0 0.3280000000001975 0  0 0.2460000000004372 0  0 0.1640000000004437 0  0 0.08200000000021695 0  0.439039350479032 0.2235433210862024 0  0.3557293424662716 0.1539377961885917 0  0.3450132387946972 0.2399891502764809 0  0.2900756359792848 0.08507884665974728 0  0.2884413411145515 0.3059878288466324 0  0.2102195502178943 0.3385267178242456 0  0.137328909169326 0.3152847369018352 0  0.08490385663776813 0.2628976192695439 0  0.08063302347471875 0.188368977740952 0  0.1005937615311739 0.1162460982751979 0  0.1621860847198582 0.08598327887900903 0  0.3012864586130264 0.1926027915888804 0  1.999140000000448 0.2049999999995642 0  0.2742354912953259 0.1572259708446958 0  0.2871471664627305 0.2264358039321654 0  0.6542851578645765 0.1981889790488746 0  0.2651366296338276 0.2534562504463119 0  0.2371819217149928 0.0977949043027586 0  1.651678197071202 0.2145186615851206 0  1.349674714201118 0.2086119645070391 0  0.9627539291831038 0.2056711800839285 0  0.2360880502985623 0.2733043913425156 0  1.159884231859056 0.2050429640239795 0  0.2502927927237266 0.1358797630898622 0  0.2080582834123368 0.2835355213895352 0  0.1805439632603489 0.278338480667804 0  0.1486243506827335 0.2626014098227327 0  0.1266658889266303 0.2392753516137401 0  0.1179814841582247 0.2069380844236527 0  0.1225167704961566 0.1764957192948648 0  0.1357996569043286 0.1472158045151807 0  0.1619764829264572 0.126298308975886 0  0.1935640279204225 0.116654032325456 0  1.82457000000085 0.2346439024393236 0  0.8027657238591595 0.149277802568535 0  1.498563450727992 0.2632867809910664 0  0.2770405925201826 0.1924926016722167 0  0.470924801584011 0.09138612536042019 0  0.550693598792917 0.2898604497866635 0  0.381089831438127 0.3238078833671811 0  2.074516462495042 0.125705772324225 0  2.083599037046577 0.2769549245607841 0  0.2692296340100125 0.2210592970306522 0  0.7614733075682367 0.2839235561638241 0  1.536698221979284 0.1258192462655419 0  1.231809489345021 0.1282542717942667 0  1.054759157670174 0.1242749934189342 0  1.754535566851005 0.1223197024158991 0  1.90452621597739 0.1324728094649104 0  0.2672409321155211 0.178737994598723 0  1.254401531996246 0.2902808614622134 0  1.04350934597445 0.2986664252663559 0  0.0749710792305778 0.3208721925318313 0  0.5425289614095572 0.165152457827861 0  0.1663208394680799 0.2644065126118989 0  0.1471335176887868 0.2433864007787126 0  0.1345556779484054 0.219852318055334 0  0.131940483167677 0.1932967226753857 0  0.1941574795820069 0.2685534232066453 0  0.2226696214021025 0.1252682734732412 0  0.2193882214552426 0.2661718674478616 0  0.1396865053227576 0.1677617654469802 0  0.8749487631478475 0.295170577255529 0  1.424301820545763 0.1157348858866879 0  1.918515045506933 0.2902236143624367 0  1.744876807925144 0.306628844405037 0  0.2443979144126529 0.254353837216211 0  0.2569054246570621 0.2306780201523878 0  0.2632507216716993 0.2062296523407826 0  0.4609453431326088 0.3138128990490959 0  0.3578015395476809 0.08253318517696946 0  0.2529777826635333 0.155582948480283 0  0.1580369715200277 0.1487041474358234 0  0.652872088668587 0.3101079993636056 0  0.297147332491062 0.2558065812325378 0  0.6188247313471635 0.1101603945467571 0  0.8951149554961688 0.1123812542864208 0  1.592749166085722 0.2985190085719691 0  1.40420309431358 0.2992155383468256 0  1.649189110727275 0.1000387439201274 0  0.2301663900864273 0.1432830242131801 0  0.2064839406544439 0.1345771465164309 0  0.2548204572493643 0.1702022465417566 0  0.1606700828011604 0.2481621709908606 0  0.2605987457303776 0.1928909671966518 0  0.1826942838524941 0.2594610608897559 0  0.1456438338561037 0.2290651013631561 0  0.1387681034994896 0.2058679665896095 0  1.140902260384949 0.3081952438204152 0  2.123402621966431 0.2039515281261525 0  0.7272188829630218 0.1047469619375249 0  0.2060868819369127 0.2616331638469837 0  0.246763614216289 0.2411610007697902 0  0.1405961691450822 0.1819800466423126 0  1.149638048863541 0.08264492713269313 0  0.1809997740285721 0.1365020267363126 0  1.993198408221569 0.09755938404998035 0  0.2287111352430851 0.2547015941619741 0  0.3818716699056283 0.2060398770290832 0  0.39147508084147 0.2656155699545688 0  0.151201080877373 0.1608659990301362 0  0.0542521118046473 0.1382221876243976 0  0.06190301158313444 0.0685934933767465 0  1.317316039400266 0.1015983144534349 0  0.2176417279723976 0.1415790407114221 0  0.2401571300978209 0.1529210337009423 0  0.2618092962776011 0.3566662607419938 0  0.1941527094396574 0.1377969918002053 0  0.9590486261329707 0.3255353063371385 0  0.1708201090411339 0.1447474051814825 0  1.837592370686806 0.3302992722413595 0  0.3197015570210796 0.1212159119695666 0  0.4155281956943757 0.1409543952531078 0  0.0549491513262805 0.2307535706287103 0  0.1668210562270142 0.3605647861782867 0  0.2854688902460447 0.2093700809023571 0  2.013251581901814 0.3292746985146142 0  0.1192191106244758 0.2809901915857802 0  0.2487958366614321 0.04556523514103697 0  0.09061021186838321 0.2240174335271237 0  1.737143840576958 0.20912817770623 0  0.04515017012776967 0.2784708690411318 0  0.5347554646753627 0.08988970780599832 0  0.977104673723579 0.08241628541188413 0  0.336509991617897 0.2888965225844298 0  0.2569238041969055 0.2173711314485607 0  1.906541186051535 0.2125389476829634 0  0.1762338839607841 0.3102437166134606 0  1.449268841077636 0.201011295143529 0  0.8555371485878378 0.2099663446585434 0  1.837208236203613 0.07556229833764837 0  1.264402545318887 0.1992523923163096 0  1.068181074047183 0.2155119107017876 0  0.3158931250274742 0.3421721218291775 0  0.2731958384900449 0.2373435058667565 0  0.09875906484220501 0.1533097574901186 0  0.7355755433976705 0.2066339904079041 0  1.567440499207928 0.2049999999995983 0  1.329829828222916 0.3295825481537897 0  0.8214190147401245 0.07894167681990104 0  1.525459989258997 0.3394220200696043 0  0.1990897327079506 0.06300531675246424 0  0.244701762210989 0.3062404318132603 0  0.1033853772622983 0.3551443431224104 0  0.1178236825374896 0.07148041782551597 0  0.1558198999929474 0.04409380269139784 0  0.3389178979413869 0.198678920661321 0  0.310790717645908 0.2196004930752872 0  2.125022007676643 0.3402049371791425 0  2.130028889485561 0.06535501282233655 0  0.4821161335597635 0.1626909543876269 0  0.2838678108956019 0.1254276466262967 0  0.5062815929260498 0.2376271077316994 0  1.663059277092996 0.3422301118688678 0  1.82292665764828 0.1574809263836269 0  2.052538557905295 0.05717536030732174 0  0.3078251537889645 0.16056368457456 0  0.8108267070172145 0.3390047366820738 0  1.487254632568403 0.0703866281621833 0  0.155004430757041 0.2369517702015699 0  0.1725545045705267 0.2519594403466565 0  0.1445581653510352 0.2167994984574706 0  0.1420710285613199 0.1942747855116325 0  1.461861739291679 0.3471998553985149 0  0.2372128969196007 0.2453440460936858 0  0.1943665918892754 0.2580518465884657 0  0.2452139232912363 0.1629124725160763 0  0.2555786751481889 0.1825885041235872 0  2.14640473333793 0.2790222779730848 0  2.145589594789407 0.1282024626544199 0  0.1486651579751984 0.1726583296292201 0  0.550000000001476 0.3603327897285098 0  0.0505668771231032 0.3660023622363767 0  1.049999999997169 0.05217028468202135 0  1.244771793631775 0.05744029386223062 0  0.1356759337238615 0.1094447816941579 0  0.5872326411628903 0.2223148728195226 0  0.2168458206248643 0.2558159203714847 0  1.749999999998732 0.05166028789524129 0  0.2855257256666041 0.1763246086558152 0  1.92
[...]
<PointData  Vectors="f_22"> 
<DataArray  type="Float64"  Name="f_22"  NumberOfComponents="3" format="ascii">0.0000000000000000e+00 0.0000000000000000e+00 0.0000000000000000e+00  0.0000000000000000e+00 0.0000000000000000e+00 0.0000000000000000e+00  0.0000000000000000e+00 0.0000000000000000e+00 0.0000000000000000e+00  0.0000000000000000e+00 0.0000000000000000e+00 0.0000000000000000e+00  0.0000000000000000e+00 0.0000000000000000e+00 0.0000000000000000e+00  0.0000000000000000e+00 0.0000000000000000e+00 0.0000000000000000e+00  0.0000000000000000e+00 0.0000000000000000e+00 0.0000000000000000e+00  0.0000000000000000e+00 0.0000000000000000e+00 0.0000000000000000e+00  0.0000000000000000e+00 0.0000000000000000e+00 0.0000000000000000e+00  0.0000000000000000e+00 0.0000000000000000e+00 0.0000000000000000e+00  0.0000000000000000e+00 0.0000000000000000e+00 0.0000000000000000e+00  0.0000000000000000e+00 0.0000000000000000e+00 0.0000000000000000e+00  0.0000000000000000e+00 0.0000000000000000e+00 0.0000000000000000e+00  0.0000000000000000e+00 0.0000000000000000e+00 0.0000000000000000e+00  0.0000000000000000e+00 0.0000000000000000e+00 0.0000000000000000e+00  0.0000000000000000e+00 0.0000000000000000e+00 0.0000000000000000e+00  0.0000000000000000e+00 0.0000000000000000e+00 0.0000000000000000e+00  0.0000000000000000e+00 0.0000000000000000e+00 0.0000000000000000e+00  0.0000000000000000e+00 0.0000000000000000e+00 0.0000000000000000e+00  0.0000000000000000e+00 0.0000000000000000e+00 0.0000000000000000e+00  0.0000000000000000e+00 0.0000000000000000e+00 0.0000000000000000e+00  0.0000000000000000e+00 0.0000000000000000e+00 0.0000000000000000e+00  0.0000000000000000e+00 0.0000000000000000e+00 0.0000000000000000e+00  0.0000000000000000e+00 0.0000000000000000e+00 0.0000000000000000e+00  0.0000000000000000e+00 0.0000000000000000e+00 0.0000000000000000e+00  0.0000000000000000e+00 0.0000000000000000e+00 0.0000000000000000e+00  0.0000000000000000e+00 0.0000000000000000e+00 0.0000000000000000e+00  0.0000000000000000e+00 0.0000000000000000e+00 0.0000000000000000e+00  0.0000000000000000e+00 0.0000000000000000e+00 0.0000000000000000e+00  0.0000000000000000e+00 0.0000000000000000e+00 0.0000000000000000e+00  0.0000000000000000e+00 0.0000000000000000e+00 0.0000000000000000e+00  0.0000000000000000e+00 0.0000000000000000e+00 0.0000000000000000e+00  0.0000000000000000e+00 0.0000000000000000e+00 0.0000000000000000e+00  0.0000000000000000e+00 0.0000000000000000e+00 0.0000000000000000e+00  0.0000000000000000e+00 0.0000000000000000e+00 0.0000000000000000e+00  0.0000000000000000e+00 0.0000000000000000e+00 0.0000000000000000e+00  0.0000000000000000e+00 0.0000000000000000e+00 0.0000000000000000e+00  0.0000000000000000e+00 0.0000000000000000e+00 0.0000000000000000e+00  0.0000000000000000e+00 0.0000000000000000e+00 0.0000000000000000e+00  0.0000000000000000e+00 0.0000000000000000e+00 0.0000000000000000e+00  0.0000000000000000e+00 0.0000000000000000e+00 0.0000000000000000e+00  0.0000000000000000e+00 0.0000000000000000e+00 0.0000000000000000e+00  0.0000000000000000e+00 0.0000000000000000e+00 0.0000000000000000e+00  0.0000000000000000e+00 0.0000000000000000e+00 0.0000000000000000e+00  0.0000000000000000e+00 0.0000000000000000e+00 0.0000000000000000e+00  0.0000000000000000e+00 0.0000000000000000e+00 0.0000000000000000e+00  0.0000000000000000e+00 0.0000000000000000e+00 0.0000000000000000e+00  0.0000000000000000e+00 0.0000000000000000e+00 0.0000000000000000e+00  0.0000000000000000e+00 0.0000000000000000e+00 0.0000000000000000e+00  0.0000000000000000e+00 0.0000000000000000e+00 0.0000000000000000e+00  0.0000000000000000e+00 0.0000000000000000e+00 0.0000000000000000e+00  0.0000000000000000e+00 0.0000000000000000e+00 0.0000000000000000e+00  0.0000000000000000e+00 0.0000000000000000e+00 0.0000000000000000e+00  0.0000000000000000e+00 0.0000000000000000e+00 0.0000000000000000e+00  0.0000000000000000e+00 0.0000000000000000e+00 0.0000000000000000e+00  0.0000000000000000e+00 0.0000000000000000e+00 0.0000000000000000e+00  0.0000000000000000e+00 0.0000000000000000e+00 0.0000000000000000e+00  7.9478961755208344e-01 3.8696373003620790e-02 0.0000000000000000e+00  1.3224638742839483e+00 2.1046348487563774e-01 0.0000000000000000e+00  1.5661912674000225e+00 4.0995135219890594e-01 0.0000000000000000e+00  1.0981661143301031e+00 1.6767593956952193e-01 0.0000000000000000e+00  0.0000000000000000e+00 0.0000000000000000e+00 0.0000000000000000e+00  0.0000000000000000e+00 0.0000000000000000e+00 0.0000000000000000e+00  0.0000000000000000e+00 0.0000000000000000e+00 0.0000000000000000e+00  0.0000000000000000e+00 0.0000000000000000e+00 0.0000000000000000e+00  0.0000000000000000e+00 0.0000000000000000e+00 0.0000000000000000e+00  0.0000000000000000e+00 0.0000000000000000e+00 0.0000000000000000e+00  0.0000000000000000e+00 0.0000000000000000e+00 0.0000000000000000e+00  0.0000000000000000e+00 0.0000000000000000e+00 0.0000000000000000e+00  0.0000000000000000e+00 0.0000000000000000e+00 0.0000000000000000e+00  0.0000000000000000e+00 0.0000000000000000e+00 0.0000000000000000e+00  0.0000000000000000e+00 0.0000000000000000e+00 0.0000000000000000e+00  0.0000000000000000e+00 0.0000000000000000e+00 0.0000000000000000e+00  0.0000000000000000e+00 0.0000000000000000e+00 0.0000000000000000e+00  0.0000000000000000e+00 0.0000000000000000e+00 0.0000000000000000e+00  0.0000000000000000e+00 0.0000000000000000e+00 0.0000000000000000e+00  0.0000000000000000e+00 0.0000000000000000e+00 0.0000000000000000e+00  0.0000000000000000e+00 0.0000000000000000e+00 0.0000000000000000e+00  0.0000000000000000e+00 0.0000000000000000e+00 0.0000000000000000e+00  0.0000000000000000e+00 0.0000000000000000e+00 0.0000000000000000e+00  0.0000000000000000e+00 0.0000000000000000e+00 0.0000000000000000e+00  0.0000000000000000e+00 0.0000000000000000e+00 0.0000000000000000e+00  9.6000005789483656e-01 0.0000000000000000e+00 0.0000000000000000e+00  1.4400000868435772e+00 0.0000000000000000e+00 0.0000000000000000e+00  1.4400000868461558e+00 0.0000000000000000e+00 0.0000000000000000e+00  9.6000005789847598e-01 0.0000000000000000e+00 0.0000000000000000e+00  3.0745738517530991e-01 -8.3876627607385046e-01 0.0000000000000000e+00  1.8262383239934654e-01 -1.7814102257149511e-01 0.0000000000000000e+00  9.1122175514913806e-01 -3.5463161515524316e-01 0.0000000000000000e+00  1.7516655212224079e+00 -2.7925971262494804e-02 0.0000000000000000e+00  1.9564656216611505e+00 -8.4245204652854636e-02 0.0000000000000000e+00  1.4696601265836677e+00 1.7169866800341890e-01 0.0000000000000000e+00  1.3372040238056619e+00 3.5775419455392887e-01 0.0000000000000000e+00  1.3431727154676349e+00 2.8495850847829252e-01 0.0000000000000000e+00  1.3056352246876215e+00 -3.6328831719949412e-02 0.0000000000000000e+00  1.2520924060505918e+00 -2.9394097253078477e-01 0.0000000000000000e+00  1.3801825930927489e+00 -3.4674905647929471e-01 0.0000000000000000e+00  -3.4723510200465468e-01 2.8481289114469066e-01 0.0000000000000000e+00  1.4844654888814908e+00 -1.4422575549638583e-01 0.0000000000000000e+00  -3.6474733966980970e-02 9.9924113347604940e-02 0.0000000000000000e+00  9.5580762354536622e-02 3.6699084273116545e-01 0.0000000000000000e+00  1.2446996876736953e+00 2.4096148772915324e-01 0.0000000000000000e+00  4.5702153627052955e-01 9.9643521166933632e-02 0.0000000000000000e+00  1.8369272525008524e+00 -1.9312367113364359e-01 0.0000000000000000e+00  1.5142497645327608e+00 1.8058883296724718e-01 0.0000000000000000e+00  1.5781557929105370e+00 4.7647007688322535e-01 0.0000000000000000e+00  1.4932631357934012e+00 6.5133784615717416e-01 0.0000000000000000e+00  1.9219326192699537e+00 1.5240502574605597e-01 0.0000000000000000e+00  1.5415316663144107e+00 -5.5212343692596766e-01 0.0000000000000000e+00  9.8835563683320227e-01 -6.4384004117431382e-03 0.0000000000000000e+00  2.0738007837487058e+00 3.9479705590118130e-01 0.0000000000000000e+00  1.9328638097808650e+00 6.3945415030703634e-01 0.0000000000000000e+00  1.5410242984821527e+00 8.0813196455187741e-01 0.0000000000000000e+00  1.1733527503106633e+00 6.1077414050558121e-01 0.0000000000000000e+00  9.4599391337092797e-01 1.6174771797286183e-01 0.0000000000000000e+00  9.7491268326106484e-01 -3.4377287826198749e-01 0.0000000000000000e+00  1.2698966324088146e+00 -6.5492910782436087e-01 0.0000000000000000e+00  1.6231973232100656e+00 -6.8326199099120166e-01 0.0000000000000000e+00  1.8808066402686758e+00 -4.9477920485628185e-01 0.0000000000000000e+00  1.5335283713400469e+00 -3.5238476895022249e-02 0.0000000000000000e+00  1.4613128077505972e+00 -2.2419515748602850e-01 0.0000000000000000e+00  1.5077286220787900e+00 -4.3740870473995769e-01 0.0000000000000000e+00  -1.7692140631373826e-01 2.8411662923195424e-01 0.0000000000000000e+00  1.6826624740186635e+00 4.3853060583786607e-01 0.0000000000000000e+00  1.0142192410985524e+00 3.0764041440876960e-01 0.0000000000000000e+00  1.4561914348161902e+00 -2.9386670680997118e-01 0.0000000000000000e+00  1.4666728931098445e+00 2.5406691472928017e-01 0.0000000000000000e+00  1.2458470998323885e+00 1.4454344027151630e-01 0.0000000000000000e+00  -2.6263721344836028e-02 3.9554639355685306e-01 0.0000000000000000e+00  1.1678571611223119e+00 -2.2226039402865863e-01 0.0000000000000000e+00  1.2066004403626376e+00 -4.0825036400076936e-01 0.0000000000000000e+00  1.4889623614675949e+00 1.7270619709792678e-01 0.0000000000000000e+00  9.3694359265876892e-01 -5.7013392926501798e-03 0.0000000000000000e+00  1.1928806521913484e+00 2.5565054051064112e-01 0.0000000000000000e+00  1.2448526540080453e+00 -2.8741520771471596e-01 0.0000000000000000e+00  -1.1507766068204883e-01 1.6058555907958136e-01 0.0000000000000000e+00  1.0914130139347653e+00 1.5445838585652127e-01 0.0000000000000000e+00  1.4925901662615246e+00 -1.9304830387917454e-01 0.0000000000000000e+00  1.0843613490240605e+00 1.8042736330209105e-01 0.0000000000000000e+00  1.5166990580687136e+00 8.3784086816642112e-01 0.0000000000000000e+00  1.8102269876247610e+00 8.8204190352792600e-01 0.0000000000000000e+00  1.2793022416293620e+00 9.9698162079416330e-01 0.0000000000000000e+00  7.8003159962514945e-01 5.7721734077318609e-01 0.0000000000000000e+00  6.4234359678042829e-01 -1.3111354894557328e-01 0.0000000000000000e+00  2.1161184009965863e+00 5.8689076050143973e-01 0.0000000000000000e+00  1.9200675965364655e+00 -2.6473623286068787e-01 0.0000000000000000e+00  1.6705107953237945e+00 1.8673880720599878e-01 0.0000000000000000e+00  9.4433195092162270e-01 -7.4372952233059375e-01 0.0000000000000000e+00  6.5403237843517659e-01 1.2031974637222735e-01 0.0000000000000000e+00  9.3658842775546447e-01 -4.9244555626950334e-02 0.0000000000000000e+00  1.2547874758578117e+00 -2.2625890686134581e-01 0.0000000000000000e+00  1.1087277785182930e+00 2.4445511011636192e-01 0.0000000000000000e+00  3.7113332659270526e-01 3.9343540209715970e-02 0.0000000000000000e+00  -4.2571192533316954e-02 2.7866824496175652e-01 0.0000000000000000e+00  -5.9544893114412162e-02 3.6553857788156424e-01 0.0000000000000000e+00  1.2031719976740523e+00 -3.6466544841895945e-02 0.0000000000000000e+00  1.7498542564525028e+00 6.1940983402832391e-02 0.0000000000000000e+00  7.3680976180307530e-03 1.2321143307602679e-02 0.0000000000000000e+00  1.4828921809569504e+00 -1.0026920786631179e+00 0.0000000000000000e+00  1.7086723397291428e+00 -3.5882385012823126e-01 0.0000000000000000e+00  9.2735918544012352e-01 3.8851604565435703e-02 0.0000000000000000e+00  9.0059135337070340e-01 3.8718501126370659e-02 0.0000000000000000e+00  1.3533366551582782e+00 2.6215861667757356e-01 0.0000000000000000e+00  1.0043252230662116e+00 -1.1045124571832754e-01 0.0000000000000000e+00  1.3374446399988047e+00 8.7021563166859953e-02 0.0000000000000000e+00  1.2654451618534071e+00 2.2364601234976769e-01 0.0000000000000000e+00  4.9229570292769337e-01 -1.2539847455308378e-02 0.0000000000000000e+00  1.7258674457421297e+00 -3.2137857358182281e-01 0.0000000000000000e+00  -5.6898590851314976e-02 5.5771437474268749e-02 0.0000000000000000e+00  1.5734013264350724e+00 1.1629581890248899e+00 0.0000000000000000e+00  -3.7809002650576608e-02 2.6186017715312737e-01 0.0000000000000000e+00  1.9807195416605901e+00 7.9023398884672502e-01 0.0000000000000000e+00  8.7645061085917975e-01 9.8855059153666003e-01 0.0000000000000000e+00  4.3781104548304878e-01 2.7042184061233404e-01 0.0000000000000000e+00  1.0576335105426751e+00 -2.5453109358412584e-01 0.0000000000000000e+00  1.5511280561444700e+00 3.3939174682715240e-01 0.0000000000000000e+00  8.4365039423855259e-01 -3.7144300197539182e-01 0.0000000000000000e+00  1.5335326901416844e+00 2.4417611314791646e-01 0.0000000000000000e+00  -4.8103104487242157e-02 1.1604910752888617e-01 0.0000000000000000e+00  5.8003355159762882e-01 -5.6491893906838886e-01 0.0000000000000000e+00  9.2085640446063954e-01 -3.2830733211616275e-01 0.0000000000000000e+00  1.9181444710673172e+00 -7.7243926613600489e-01 0.0000000000000000e+00  1.2000733300299573e+00 -9.1947302029857500e-02 0.0000000000000000e+00  3.8040122915863583e-01 1.9948113413852660e-02 0.0000000000000000e+00  -1.6792662781823557e-02 -8.0411822103185193e-01 0.0000000000000000e+00  1.5497230161991820e+00 -7.4193485321459407e-01 0.0000000000000000e+00  1.1353615998339204e+00 -1.0387367966053225e+00 0.0000000000000000e+00  1.3166158382917630e+00 -1.1593712829467991e-01 0.0000000000000000e+00  8.7896510287911966e-01 -9.9983648722286420e-02 0.0000000000000000e+00  1.0646379600646085e+00 2.9362654673253252e-01 0.0000000000000000e+00  7.6291145075373601e-01 -4.5094748327633501e-02 0.0000000000000000e+00  3.9781157323439474e-02 -2.5020054653597999e-02 0.0000000000000000e+00  1.3513970016957331e+00 9.3403844842514239e-04 0.0000000000000000e+00  1.7948427652274315e+00 -4.9766214117840257e-01 0.0000000000000000e+00  1.0905779931961623e+00 2.3983396298861254e-01 0.0000000000000000e+00  1.7438501262910786e+00 -9.7037485939838419e-01 0.0000000000000000e+00  1.0984958574664716e+00 -1.1636709054384209e-01 0.0000000000000000e+00  1.5115305321630115e+00 5.7954725683115979e-02 0.0000000000000000e+00  1.2981620234563662e+00 -4.6742215511883616e-02 0.0000000000000000e+00  1.4172510432320438e+00 1.0820170313401076e-01 0.0000000000000000e+00  1.0403119786091599e+00 1.5162385739254700e-01 0.0000000000000000e+00  -1.3257500864092278e-01 3.8486735421919849e-01 0.0000000000000000e+00  8.0610894039762082e-01 -2.2438249302753770e-02 0.0000000000000000e+00  1.3873808416127653e+00 4.5986492379235688e-01 0.0000000000000000e+00  1.2634767636945448e+00 -5.7820879923925345e-02 0.0000000000000000e+00  1.2789692685175136e+00 2.0428215875916997e-01 0.0000000000000000e+00  1.6048695848588703e+00 4.3300310420650601e-01 0.0000000000000000e+00  1.3066236026803209e+00 1.2639902037402906e-01 0.0000000000000000e+00  1.2602100290918743e+00 3.3415850966174060e-01 0.0000000000000000e+00  7.6387740685199079e-01 2.1151348849265580e-01 0.0000000000000000e+00  2.0093986831670798e+00 -4.0200773865526568e-01 0.0000000000000000e+00  -5.5680756371625076e-02 3.1552104993779290e-01 0.0000000000000000e+00  1.5712041244361641e+00 -3.5999918847559470e-01 0.0000000000000000e+00  1.6138177640831530e+00 3.9175942045894113e-01 0.0000000000000000e+00  1.5771945964483964e+00 -1.6848715759011429e-01 0.0000000000000000e+00  1.6451410992516742e+00 -1.1244625323227431e-01 0.0000000000000000e+00  6.1130139205225165e-01 -1.0758807547461209e-01 0.0000000000000000e+00  1.5555457187444024e+00 2.8121853528729240e-01 0.0000000000000000e+00  1.6326735645742678e+00 -2.8175645402471849e-01 0.0000000000000000e+00  1.5050487756347053e+00 -1.4156988169073201e-01 0.0000000000000000e+00  1.4980340532965356e-01 2.9754396079834938e-01 0.0000000000000000e+00  1.2604270426538480e+00 -2.7956388887639139e-01 0.0000000000000000e+00  1.5735721734415256e+00 -8.8644670336148379e-01 0.0000000000000000e+00  1.5382169019352268e+00 -3.2045293620692245e-01 0.0000000000000000e+00  8.4229912889059599e-01 3.2959446169870865e-01 0.0000000000000000e+00  1.2803896175827447e+00 9.3090838424631436e-02 0.0000000000000000e+00  7.5925079965690956e-01 -1.9035347912566994e-01 0.0000000000000000e+00  1.3271931464901030e+00 -1.9273060871552025e-01 0.0000000000000000e+00  1.9241174225271065e+00 1.2304969188129777e-01 0.0000000000000000e+00  8.5373139026629374e-01 1.4456348262181898e-01 0.0000000000000000e+00  1.0432511397994879e+00 -2.1599728908209145e-01 0.0000000000000000e+00  9.2000451912454106e-01 -1.4075632125785370e-01 0.0000000000000000e+00  -4.0000406854437859e-01 -3.3153917748197793e-02 0.0000000000000000e+00  5.2662582058712298e-02 2.8885772139099258e-01 0.0000000000000000e+00  8.0610326352415840e-01 1.2751113860102944e-01 0.0000000000000000e+00  7.4446040196884666e-01 8.5651514645598600e-02 0.0000000000000000e+00  1.6153303857264305e+00 6.2792697363953431e-01 0.0000000000000000e+00  1.4825429819935032e+00 4.8404642388705753e-02 0.0000000000000000e+00  5.6458313600326859e-01 3.0767525127474388e-01 0.0000000000000000e+00  6.1020005217975992e-01 1.5889430298067617e-01 0.0000000000000000e+00  1.4223472362825513e+00 -5.8611465664968207e-02 0.0000000000000000e+00  8.2122564915483465e-01 6.7653799392676531e-02 0.0000000000000000e+00  -1.1554902078680392e-01 1.2167778602077849e-01 0.0000000000000000e+00  6.9026859776624805e-01 -7.2843238257148168e-02 0.0000000000000000e+00  6.4147273415331152e-01 -2.3077768116895325e-01 0.0000000000000000e+00  1.1412815039034585e+00 1.1932152993542218e+00 0.0000000000000000e+00  1.7414834995777755e+00 9.9615243411977683e-01 0.0000000000000000e+00  4.7216118416077851e-01 7.2075871216487708e-01 0.0000000000000000e+00  2.9995493902360404e-01 -1.8019659979825081e-01 0.0000000000000000e+00  8.9838204930592036e-01 -1.1486532916459666e-01 0.0000000000000000e+00  -2.7430977358993424e-02 5.5584347512409385e-02 0.0000000000000000e+00  1.5203692874664361e+00 3.8112211821009045e-01 0.0000000000000000e+00  -4.5331720830924134e-02 -2.0703024776243258e-02 0.0000000000000000e+00  -1.2983929855533300e-02 1.3936007603294337e-01 0.0000000000000000e+00  1.2848193400828900e+00 2.3755527346919436e-01 0.0000000000000000e+00  1.2647201238013646e+00 2.3390367358276246e-01 0.0000000000000000e+00  7.2026299091880763e-01 -9.3288266672668285e-01 0.0000000000000000e+00  1.0174758349626591e+00 4.1604813272462883e-02 0.0000000000000000e+00  6.1310338345978199e-01 5.5273981960488827e-02 0.0000000000000000e+00  4.3855309167785017e-01 -8.1149908401592970e-03 0.0000000000000000e+00  8.9146902753740154e-01 6.4057229635422944e-02 0.0000000000000000e+00  1.3601909010228863e+00 -4.3740850450222934e-01 0.0000000000000000e+00  1.2653326808025411e+00 6.4530102701855752e-01 0.0000000000000000e+00  5.4939502524100003e-01 2.0981885005657792e-02 0.0000000000000000e+00  4.7662517524152154e-01 9.0102552905630240e-02 0.0000000000000000e+00  -2.2544836149882691e-01 1.8143641587307141e-01 0.0000000000000000e+00  7.9126670390690290e-01 -1.3766862448866218e-01 0.0000000000000000e+00  1.3895763369357450e+00 1.9995116278226591e-01 0.0000000000000000e+00  8.9351118006558439e-01 -6.5156313955585909e-02 0.0000000000000000e+00  2.0145437551559233e+00 4.3853001593364964e-02 0.0000000000000000e+00  1.4589809729450596e+00 1.9215980273769202e-03 0.0000000000000000e+00  1.6169623348227187e+00 5.9592058386831459e-01 0.0000000000000000e+00  8.0149875229401779e-01 -4.7349964265223185e-02 0.0000000000000000e+00  1.5539339427501093e+00 4.2416278012699415e-01 0.0000000000000000e+00  1.5530683000769601e+00 3.8581719543986159e-01 0.0000000000000000e+00  1.5361049333668622e+00 2.3735171171645109e-01 0.0000000000000000e+00  1.4942734485339237e+00 3.3159621846517529e-01 0.0000000000000000e+00  1.1956902224082429e+00 2.9263832151720653e-01 0.0000000000000000e+00  1.2990161244335403e+00 -1.5090731417630560e-01 0.0000000000000000e+00  1.3346889935352291e+00 -6.6851875165824370e-01 0.0000000000000000e+00  1.4340258401781218e+00 -3.0694455803997578e-01 0.0000000000000000e+00  7.1292503780328675e-01 -4.5602665355212463e-01 0.0000000000000000e+00  1.5286862428036474e+00 -5.6110727540110994e-01 