<?xml version="1.0"?>
<VTKFile type="UnstructuredGrid"  version="0.1"  >
<UnstructuredGrid>
<Piece  NumberOfPoints="3852" NumberOfCells="7360">
<Points>
<DataArray  type="Float64"  NumberOfComponents="3"  format="ascii">0 0 0  0 0.41 0  2.2 0.41 0  2.2 0 0  0.2 0.15 0  0.15 0.2 0  0.2 0.25 0  0.25 0.2 0  0.2097545161007899 0.1509607359798352 0  0.219134171618224 0.153806023374423 0  0.2277785116509268 0.1584265193848371 0  0.2353553390592504 0.1646446609405956 0  0.2415734806150793 0.1722214883489481 0  0.2461939766255306 0.1808658283816641 0  0.249039264020151 0.1902454838991403 0  0.2490392640201666 0.2097545161007811 0  0.2461939766255869 0.2191341716182 0  0.2415734806151802 0.2277785116509009 0  0.2353553390594108 0.235355339059244 0  0.2277785116510524 0.2415734806150789 0  0.2191341716182962 0.2461939766255471 0  0.209754516100834 0.2490392640201561 0  0.1902454838992189 0.2490392640201666 0  0.1808658283818 0.2461939766255869 0  0.1722214883490991 0.2415734806151802 0  0.164644660940756 0.2353553390594108 0  0.1584265193849211 0.2277785116510524 0  0.1538060233744529 0.2191341716182962 0  0.150960735979844 0.209754516100834 0  0.1509607359798352 0.1902454838992101 0  0.153806023374423 0.180865828381776 0  0.1584265193848371 0.1722214883490732 0  0.1646446609405956 0.1646446609407496 0  0.1722214883489481 0.1584265193849207 0  0.1808658283816641 0.1538060233744694 0  0.1902454838991403 0.150960735979849 0  0.09999999999980318 0 0  0.1999999999996354 0 0  0.2999999999994593 0 0  0.3999999999991452 0 0  0.4999999999988309 0 0  0.599999999998495 0 0  0.6999999999982023 0 0  0.7999999999979096 0 0  0.8999999999975735 0 0  0.9999999999972848 0 0  1.099999999997053 0 0  1.199999999997309 0 0  1.299999999997566 0 0  1.399999999997821 0 0  1.49999999999809 0 0  1.599999999998377 0 0  1.69999999999859 0 0  1.799999999998877 0 0  1.899999999999145 0 0  1.999999999999386 0 0  2.099999999999693 0 0  2.2 0.08199999999981657 0  2.2 0.1639999999995688 0  2.2 0.2459999999995603 0  2.2 0.327999999999785 0  2.100000000000048 0.41 0  2.000000000000269 0.41 0  1.900000000000422 0.41 0  1.800000000000679 0.41 0  1.700000000000931 0.41 0  1.600000000001326 0.41 0  1.500000000001665 0.41 0  1.400000000002032 0.41 0  1.300000000002395 0.41 0  1.200000000002644 0.41 0  1.100000000002865 0.41 0  1.000000000002617 0.41 0  0.900000000002368 0.41 0  0.8000000000021192 0.41 0  0.7000000000018587 0.41 0  0.6000000000015786 0.41 0  0.5000000000013736 0.41 0  0.4000000000010933 0.41 0  0.3000000000008329 0.41 0  0.2000000000005997 0.41 0  0.1000000000003003 0.41 0  0 0.3280000000001975 0  0 0.2460000000004372 0  0 0.1640000000004437 0  0 0.08200000000021695 0  0.439039350479032 0.2235433210862024 0  0.3557293424662716 0.1539377961885917 0  0.3450132387946972 0.2399891502764809 0  0.2900756359792848 0.08507884665974728 0  0.2884413411145515 0.3059878288466324 0  0.2102195502178943 0.3385267178242456 0  0.137328909169326 0.3152847369018352 0  0.08490385663776813 0.2628976192695439 0  0.08063302347471875 0.188368977740952 0  0.1005937615311739 0.1162460982751979 0  0.1621860847198582 0.08598327887900903 0  0.3012864586130264 0.1926027915888804 0  1.999140000000448 0.2049999999995642 0  0.2742354912953259 0.1572259708446958 0  0.2871471664627305 0.2264358039321654 0  0.6542851578645765 0.1981889790488746 0  0.2651366296338276 0.2534562504463119 0  0.2371819217149928 0.0977949043027586 0  1.651678197071202 0.2145186615851206 0  1.349674714201118 0.2086119645070391 0  0.9627539291831038 0.2056711800839285 0  0.2360880502985623 0.2733043913425156 0  1.159884231859056 0.2050429640239795 0  0.2502927927237266 0.1358797630898622 0  0.2080582834123368 0.2835355213895352 0  0.1805439632603489 0.278338480667804 0  0.1486243506827335 0.2626014098227327 0  0.1266658889266303 0.2392753516137401 0  0.1179814841582247 0.2069380844236527 0  0.1225167704961566 0.1764957192948648 0  0.1357996569043286 0.1472158045151807 0  0.1619764829264572 0.126298308975886 0  0.1935640279204225 0.116654032325456 0  1.82457000000085 0.2346439024393236 0  0.8027657238591595 0.149277802568535 0  1.498563450727992 0.2632867809910664 0  0.2770405925201826 0.1924926016722167 0  0.470924801584011 0.09138612536042019 0  0.550693598792917 0.2898604497866635 0  0.381089831438127 0.3238078833671811 0  2.074516462495042 0.125705772324225 0  2.083599037046577 0.2769549245607841 0  0.2692296340100125 0.2210592970306522 0  0.7614733075682367 0.2839235561638241 0  1.536698221979284 0.1258192462655419 0  1.231809489345021 0.1282542717942667 0  1.054759157670174 0.1242749934189342 0  1.754535566851005 0.1223197024158991 0  1.90452621597739 0.1324728094649104 0  0.2672409321155211 0.178737994598723 0  1.254401531996246 0.2902808614622134 0  1.04350934597445 0.2986664252663559 0  0.0749710792305778 0.3208721925318313 0  0.5425289614095572 0.165152457827861 0  0.1663208394680799 0.2644065126118989 0  0.1471335176887868 0.2433864007787126 0  0.1345556779484054 0.219852318055334 0  0.131940483167677 0.1932967226753857 0  0.1941574795820069 0.2685534232066453 0  0.2226696214021025 0.1252682734732412 0  0.2193882214552426 0.2661718674478616 0  0.1396865053227576 0.1677617654469802 0  0.8749487631478475 0.295170577255529 0  1.424301820545763 0.1157348858866879 0  1.918515045506933 0.2902236143624367 0  1.744876807925144 0.306628844405037 0  0.2443979144126529 0.254353837216211 0  0.2569054246570621 0.2306780201523878 0  0.2632507216716993 0.2062296523407826 0  0.4609453431326088 0.3138128990490959 0  0.3578015395476809 0.08253318517696946 0  0.2529777826635333 0.155582948480283 0  0.1580369715200277 0.1487041474358234 0  0.652872088668587 0.3101079993636056 0  0.297147332491062 0.2558065812325378 0  0.6188247313471635 0.1101603945467571 0  0.8951149554961688 0.1123812542864208 0  1.592749166085722 0.2985190085719691 0  1.40420309431358 0.2992155383468256 0  1.649189110727275 0.1000387439201274 0  0.2301663900864273 0.1432830242131801 0  0.2064839406544439 0.1345771465164309 0  0.2548204572493643 0.1702022465417566 0  0.1606700828011604 0.2481621709908606 0  0.2605987457303776 0.1928909671966518 0  0.1826942838524941 0.2594610608897559 0  0.1456438338561037 0.2290651013631561 0  0.1387681034994896 0.2058679665896095 0  1.140902260384949 0.3081952438204152 0  2.123402621966431 0.2039515281261525 0  0.7272188829630218 0.1047469619375249 0  0.2060868819369127 0.2616331638469837 0  0.246763614216289 0.2411610007697902 0  0.1405961691450822 0.1819800466423126 0  1.149638048863541 0.08264492713269313 0  0.1809997740285721 0.1365020267363126 0  1.993198408221569 0.09755938404998035 0  0.2287111352430851 0.2547015941619741 0  0.3818716699056283 0.2060398770290832 0  0.39147508084147 0.2656155699545688 0  0.151201080877373 0.1608659990301362 0  0.0542521118046473 0.1382221876243976 0  0.06190301158313444 0.0685934933767465 0  1.317316039400266 0.1015983144534349 0  0.2176417279723976 0.1415790407114221 0  0.2401571300978209 0.1529210337009423 0  0.2618092962776011 0.3566662607419938 0  0.1941527094396574 0.1377969918002053 0  0.9590486261329707 0.3255353063371385 0  0.1708201090411339 0.1447474051814825 0  1.837592370686806 0.3302992722413595 0  0.3197015570210796 0.1212159119695666 0  0.4155281956943757 0.1409543952531078 0  0.0549491513262805 0.2307535706287103 0  0.1668210562270142 0.3605647861782867 0  0.2854688902460447 0.2093700809023571 0  2.013251581901814 0.3292746985146142 0  0.1192191106244758 0.2809901915857802 0  0.2487958366614321 0.04556523514103697 0  0.09061021186838321 0.2240174335271237 0  1.737143840576958 0.20912817770623 0  0.04515017012776967 0.2784708690411318 0  0.5347554646753627 0.08988970780599832 0  0.977104673723579 0.08241628541188413 0  0.336509991617897 0.2888965225844298 0  0.2569238041969055 0.2173711314485607 0  1.906541186051535 0.2125389476829634 0  0.1762338839607841 0.3102437166134606 0  1.449268841077636 0.201011295143529 0  0.8555371485878378 0.2099663446585434 0  1.837208236203613 0.07556229833764837 0  1.264402545318887 0.1992523923163096 0  1.068181074047183 0.2155119107017876 0  0.3158931250274742 0.3421721218291775 0  0.2731958384900449 0.2373435058667565 0  0.09875906484220501 0.1533097574901186 0  0.7355755433976705 0.2066339904079041 0  1.567440499207928 0.2049999999995983 0  1.329829828222916 0.3295825481537897 0  0.8214190147401245 0.07894167681990104 0  1.525459989258997 0.3394220200696043 0  0.1990897327079506 0.06300531675246424 0  0.244701762210989 0.3062404318132603 0  0.1033853772622983 0.3551443431224104 0  0.1178236825374896 0.07148041782551597 0  0.1558198999929474 0.04409380269139784 0  0.3389178979413869 0.198678920661321 0  0.310790717645908 0.2196004930752872 0  2.125022007676643 0.3402049371791425 0  2.130028889485561 0.06535501282233655 0  0.4821161335597635 0.1626909543876269 0  0.2838678108956019 0.1254276466262967 0  0.5062815929260498 0.2376271077316994 0  1.663059277092996 0.3422301118688678 0  1.82292665764828 0.1574809263836269 0  2.052538557905295 0.05717536030732174 0  0.3078251537889645 0.16056368457456 0  0.8108267070172145 0.3390047366820738 0  1.487254632568403 0.0703866281621833 0  0.155004430757041 0.2369517702015699 0  0.1725545045705267 0.2519594403466565 0  0.1445581653510352 0.2167994984574706 0  0.1420710285613199 0.1942747855116325 0  1.461861739291679 0.3471998553985149 0  0.2372128969196007 0.2453440460936858 0  0.1943665918892754 0.2580518465884657 0  0.2452139232912363 0.1629124725160763 0  0.2555786751481889 0.1825885041235872 0  2.14640473333793 0.2790222779730848 0  2.145589594789407 0.1282024626544199 0  0.1486651579751984 0.1726583296292201 0  0.550000000001476 0.3603327897285098 0  0.0505668771231032 0.3660023622363767 0  1.049999999997169 0.05217028468202135 0  1.244771793631775 0.05744029386223062 0  0.1356759337238615 0.1094447816941579 0  0.5872326411628903 0.2223148728195226 0  0.2168458206248643 0.2558159203714847 0  1.749999999998732 0.05166028789524129 0  0.2855257256666041 0.1763246086558152 0  1.92
[...]
<PointData  Vectors="f_22"> 
<DataArray  type="Float64"  Name="f_22"  NumberOfComponents="3" format="ascii">0.0000000000000000e+00 0.0000000000000000e+00 0.0000000000000000e+00  0.0000000000000000e+00 0.0000000000000000e+00 0.0000000000000000e+00  0.0000000000000000e+00 0.0000000000000000e+00 0.0000000000000000e+00  0.0000000000000000e+00 0.0000000000000000e+00 0.0000000000000000e+00  0.0000000000000000e+00 0.0000000000000000e+00 0.0000000000000000e+00  0.0000000000000000e+00 0.0000000000000000e+00 0.0000000000000000e+00  0.0000000000000000e+00 0.0000000000000000e+00 0.0000000000000000e+00  0.0000000000000000e+00 0.0000000000000000e+00 0.0000000000000000e+00  0.0000000000000000e+00 0.0000000000000000e+00 0.0000000000000000e+00  0.0000000000000000e+00 0.0000000000000000e+00 0.0000000000000000e+00  0.0000000000000000e+00 0.0000000000000000e+00 0.0000000000000000e+00  0.0000000000000000e+00 0.0000000000000000e+00 0.0000000000000000e+00  0.0000000000000000e+00 0.0000000000000000e+00 0.0000000000000000e+00  0.0000000000000000e+00 0.0000000000000000e+00 0.0000000000000000e+00  0.0000000000000000e+00 0.0000000000000000e+00 0.0000000000000000e+00  0.0000000000000000e+00 0.0000000000000000e+00 0.0000000000000000e+00  0.0000000000000000e+00 0.0000000000000000e+00 0.0000000000000000e+00  0.0000000000000000e+00 0.0000000000000000e+00 0.0000000000000000e+00  0.0000000000000000e+00 0.0000000000000000e+00 0.0000000000000000e+00  0.0000000000000000e+00 0.0000000000000000e+00 0.0000000000000000e+00  0.0000000000000000e+00 0.0000000000000000e+00 0.0000000000000000e+00  0.0000000000000000e+00 0.0000000000000000e+00 0.0000000000000000e+00  0.0000000000000000e+00 0.0000000000000000e+00 0.0000000000000000e+00  0.0000000000000000e+00 0.0000000000000000e+00 0.0000000000000000e+00  0.0000000000000000e+00 0.0000000000000000e+00 0.0000000000000000e+00  0.0000000000000000e+00 0.0000000000000000e+00 0.0000000000000000e+00  0.0000000000000000e+00 0.0000000000000000e+00 0.0000000000000000e+00  0.0000000000000000e+00 0.0000000000000000e+00 0.0000000000000000e+00  0.0000000000000000e+00 0.0000000000000000e+00 0.0000000000000000e+00  0.0000000000000000e+00 0.0000000000000000e+00 0.0000000000000000e+00  0.0000000000000000e+00 0.0000000000000000e+00 0.0000000000000000e+00  0.0000000000000000e+00 0.0000000000000000e+00 0.0000000000000000e+00  0.0000000000000000e+00 0.0000000000000000e+00 0.0000000000000000e+00  0.0000000000000000e+00 0.0000000000000000e+00 0.0000000000000000e+00  0.0000000000000000e+00 0.0000000000000000e+00 0.0000000000000000e+00  0.0000000000000000e+00 0.0000000000000000e+00 0.0000000000000000e+00  0.0000000000000000e+00 0.0000000000000000e+00 0.0000000000000000e+00  0.0000000000000000e+00 0.0000000000000000e+00 0.0000000000000000e+00  0.0000000000000000e+00 0.0000000000000000e+00 0.0000000000000000e+00  0.0000000000000000e+00 0.0000000000000000e+00 0.0000000000000000e+00  0.0000000000000000e+00 0.0000000000000000e+00 0.0000000000000000e+00  0.0000000000000000e+00 0.0000000000000000e+00 0.0000000000000000e+00  0.0000000000000000e+00 0.0000000000000000e+00 0.0000000000000000e+00  0.0000000000000000e+00 0.0000000000000000e+00 0.0000000000000000e+00  0.0000000000000000e+00 0.0000000000000000e+00 0.0000000000000000e+00  0.0000000000000000e+00 0.0000000000000000e+00 0.0000000000000000e+00  0.0000000000000000e+00 0.0000000000000000e+00 0.0000000000000000e+00  0.0000000000000000e+00 0.0000000000000000e+00 0.0000000000000000e+00  0.0000000000000000e+00 0.0000000000000000e+00 0.0000000000000000e+00  0.0000000000000000e+00 0.0000000000000000e+00 0.0000000000000000e+00  0.0000000000000000e+00 0.0000000000000000e+00 0.0000000000000000e+00  0.0000000000000000e+00 0.0000000000000000e+00 0.0000000000000000e+00  0.0000000000000000e+00 0.0000000000000000e+00 0.0000000000000000e+00  0.0000000000000000e+00 0.0000000000000000e+00 0.0000000000000000e+00  0.0000000000000000e+00 0.0000000000000000e+00 0.0000000000000000e+00  0.0000000000000000e+00 0.0000000000000000e+00 0.0000000000000000e+00  0.0000000000000000e+00 0.0000000000000000e+00 0.0000000000000000e+00  7.8599840758690687e-01 1.1393395657517119e-02 0.0000000000000000e+00  1.2517829963338154e+00 1.0824170129979532e-01 0.0000000000000000e+00  1.5811143283700986e+00 2.8086949108902959e-01 0.0000000000000000e+00  1.1672493844137042e+00 1.0638649679435834e-01 0.0000000000000000e+00  0.0000000000000000e+00 0.0000000000000000e+00 0.0000000000000000e+00  0.0000000000000000e+00 0.0000000000000000e+00 0.0000000000000000e+00  0.0000000000000000e+00 0.0000000000000000e+00 0.0000000000000000e+00  0.0000000000000000e+00 0.0000000000000000e+00 0.0000000000000000e+00  0.0000000000000000e+00 0.0000000000000000e+00 0.0000000000000000e+00  0.0000000000000000e+00 0.0000000000000000e+00 0.0000000000000000e+00  0.0000000000000000e+00 0.0000000000000000e+00 0.0000000000000000e+00  0.0000000000000000e+00 0.0000000000000000e+00 0.0000000000000000e+00  0.0000000000000000e+00 0.0000000000000000e+00 0.0000000000000000e+00  0.0000000000000000e+00 0.0000000000000000e+00 0.0000000000000000e+00  0.0000000000000000e+00 0.0000000000000000e+00 0.0000000000000000e+00  0.0000000000000000e+00 0.0000000000000000e+00 0.0000000000000000e+00  0.0000000000000000e+00 0.0000000000000000e+00 0.0000000000000000e+00  0.0000000000000000e+00 0.0000000000000000e+00 0.0000000000000000e+00  0.0000000000000000e+00 0.0000000000000000e+00 0.0000000000000000e+00  0.0000000000000000e+00 0.0000000000000000e+00 0.0000000000000000e+00  0.0000000000000000e+00 0.0000000000000000e+00 0.0000000000000000e+00  0.0000000000000000e+00 0.0000000000000000e+00 0.0000000000000000e+00  0.0000000000000000e+00 0.0000000000000000e+00 0.0000000000000000e+00  0.0000000000000000e+00 0.0000000000000000e+00 0.0000000000000000e+00  0.0000000000000000e+00 0.0000000000000000e+00 0.0000000000000000e+00  9.6000005372218844e-01 0.0000000000000000e+00 0.0000000000000000e+00  1.4400000805846052e+00 0.0000000000000000e+00 0.0000000000000000e+00  1.4400000805871833e+00 0.0000000000000000e+00 0.0000000000000000e+00  9.6000005372582808e-01 0.0000000000000000e+00 0.0000000000000000e+00  6.4635601880901242e-02 -4.2077223769773414e-01 0.0000000000000000e+00  5.1628758397761787e-01 -2.9071854881500525e-01 0.0000000000000000e+00  7.3866557407618949e-01 -5.6214554221066637e-01 0.0000000000000000e+00  1.7924527715502185e+00 -4.4994925040222671e-02 0.0000000000000000e+00  1.9226941650904534e+00 -1.0970903028149015e-01 0.0000000000000000e+00  1.4619238424903633e+00 1.6063726183483396e-01 0.0000000000000000e+00  1.3371875106309026e+00 3.5192354937675802e-01 0.0000000000000000e+00  1.3433759890816392e+00 2.8479095121899300e-01 0.0000000000000000e+00  1.3056141108424426e+00 -3.6485992986132421e-02 0.0000000000000000e+00  1.2516740894737670e+00 -2.9608574271320132e-01 0.0000000000000000e+00  1.3815825391378855e+00 -3.5605676008005149e-01 0.0000000000000000e+00  -3.6144798868865452e-01 4.7092002596564306e-02 0.0000000000000000e+00  1.4319970647311910e+00 1.1914120286812602e-02 0.0000000000000000e+00  -2.5945988563817253e-02 1.9268832305388318e-02 0.0000000000000000e+00  3.6474019040322846e-02 2.5254512285585251e-01 0.0000000000000000e+00  1.3980967444654007e+00 -6.9271706356255658e-01 0.0000000000000000e+00  5.2090224275112795e-01 7.7169985821769552e-02 0.0000000000000000e+00  1.8486491376229055e+00 -2.1665721591619394e-01 0.0000000000000000e+00  1.5320673905183322e+00 3.5295169171842361e-01 0.0000000000000000e+00  1.5463713393133163e+00 3.1586609516920744e-01 0.0000000000000000e+00  1.4564194108242166e+00 3.1957248936349331e-01 0.0000000000000000e+00  1.9441728053897838e+00 1.3171016067771679e-01 0.0000000000000000e+00  1.4471713386704821e+00 -2.9729304497924303e-01 0.0000000000000000e+00  9.2397747538035646e-01 -2.7420517565777396e-02 0.0000000000000000e+00  2.0734773696152327e+00 3.7649885106312453e-01 0.0000000000000000e+00  1.9333901364085511e+00 6.2707022501686793e-01 0.0000000000000000e+00  1.5401231268713858e+00 8.0017709257313052e-01 0.0000000000000000e+00  1.1721570105208732e+00 6.0416567715525937e-01 0.0000000000000000e+00  9.4565444338059368e-01 1.5530988971298904e-01 0.0000000000000000e+00  9.7571197959566836e-01 -3.5054583202630568e-01 0.0000000000000000e+00  1.2707634059395236e+00 -6.6212195215845626e-01 0.0000000000000000e+00  1.6229531389723719e+00 -6.9318035478678675e-01 0.0000000000000000e+00  1.8803148206746065e+00 -5.1099100342332082e-01 0.0000000000000000e+00  1.5362252227080453e+00 -2.0887929051104628e-01 0.0000000000000000e+00  1.5257796005871969e+00 -4.1373153821549692e-02 0.0000000000000000e+00  1.4073088972561016e+00 -3.9046647096497772e-01 0.0000000000000000e+00  -1.8386304900361894e-01 1.5625566057389079e-01 0.0000000000000000e+00  1.5398167376183638e+00 4.6763375926545281e-01 0.0000000000000000e+00  1.4937103295665242e+00 2.0196447432314399e-01 0.0000000000000000e+00  1.4138649657719398e+00 -2.2155500449234666e-01 0.0000000000000000e+00  1.4006271666914378e+00 2.9214059416443428e-01 0.0000000000000000e+00  1.2612906453048198e+00 1.8312944204830692e-01 0.0000000000000000e+00  -5.3299291764236159e-02 3.2330159186545138e-01 0.0000000000000000e+00  1.0043426810156606e+00 -1.9542735495921490e-01 0.0000000000000000e+00  1.3087719238349758e+00 -2.7114487487668198e-01 0.0000000000000000e+00  1.4604647136532134e+00 3.2839827450236492e-01 0.0000000000000000e+00  9.5352418004689010e-01 -4.0794399644928786e-01 0.0000000000000000e+00  1.1613938990187271e+00 1.2765538402733992e-01 0.0000000000000000e+00  1.2849427535959888e+00 -3.1664649176765280e-01 0.0000000000000000e+00  -1.0058770707614338e-01 7.2781220053314125e-02 0.0000000000000000e+00  1.1338446190655551e+00 4.2621565280767132e-01 0.0000000000000000e+00  1.3932190201189920e+00 -2.6135060513494313e-01 0.0000000000000000e+00  1.0850518538544673e+00 1.8113868043163150e-01 0.0000000000000000e+00  1.2850130301926621e+00 6.4870506609308975e-01 0.0000000000000000e+00  1.8103198701815610e+00 8.7281732603247653e-01 0.0000000000000000e+00  1.2771046267688411e+00 9.8888163097956849e-01 0.0000000000000000e+00  7.7837742083006201e-01 5.6822045135162857e-01 0.0000000000000000e+00  6.4283863462907054e-01 -1.4036480823693928e-01 0.0000000000000000e+00  2.1236433104449053e+00 5.7427654720615751e-01 0.0000000000000000e+00  1.9038539731715467e+00 -2.8589046187534117e-01 0.0000000000000000e+00  1.7053627337231758e+00 1.7294502877392218e-01 0.0000000000000000e+00  9.4629221528536189e-01 -7.5219497328399265e-01 0.0000000000000000e+00  7.8909798286581234e-01 5.1926946157111953e-01 0.0000000000000000e+00  9.4303716388263037e-01 -3.1641267457002742e-01 0.0000000000000000e+00  1.1733636720064027e+00 -1.6474090496056693e-01 0.0000000000000000e+00  1.2268240208246359e+00 1.2463068797678381e-01 0.0000000000000000e+00  4.1886523641661882e-01 3.0846529041422092e-02 0.0000000000000000e+00  -4.4738216816670603e-02 2.7059038493368637e-01 0.0000000000000000e+00  -7.5214599988416134e-02 2.9711191795998304e-01 0.0000000000000000e+00  1.3219243184433009e+00 7.7869932419659532e-02 0.0000000000000000e+00  1.8103525113933510e+00 1.1432020842665007e-01 0.0000000000000000e+00  -1.8960387864619007e-02 1.9635384249934908e-03 0.0000000000000000e+00  1.4835550952984347e+00 -1.0104245001290413e+00 0.0000000000000000e+00  1.4860749314419075e+00 -3.8894550305861864e-01 0.0000000000000000e+00  9.8443939966968630e-01 -5.5764327128444854e-02 0.0000000000000000e+00  7.0605428741670073e-01 1.6725688152103187e-02 0.0000000000000000e+00  1.1137949303798522e+00 2.0489582415232299e-01 0.0000000000000000e+00  9.7397801346187252e-01 1.0471919069181955e-01 0.0000000000000000e+00  1.4432970224596327e+00 -2.3384194833029748e-01 0.0000000000000000e+00  1.1476316206240191e+00 2.5067285374098469e-01 0.0000000000000000e+00  4.4736243123080932e-01 -2.4180496159054758e-02 0.0000000000000000e+00  1.6964143266759277e+00 -3.3201163654290089e-01 0.0000000000000000e+00  -5.0099826988528794e-02 3.2861794925562314e-02 0.0000000000000000e+00  1.5723991439932647e+00 1.1561556931761128e+00 0.0000000000000000e+00  -4.3460687759767865e-02 1.9789558977764454e-01 0.0000000000000000e+00  1.9901407023747029e+00 7.8459604419688755e-01 0.0000000000000000e+00  8.7363864388713353e-01 9.7952545595927010e-01 0.0000000000000000e+00  4.3703624659225349e-01 2.5992805458903684e-01 0.0000000000000000e+00  9.3312973632650043e-01 -3.1866815502969714e-01 0.0000000000000000e+00  1.6215423056551355e+00 4.2395963071755055e-01 0.0000000000000000e+00  1.0763742239755696e+00 -2.8347268279184723e-01 0.0000000000000000e+00  1.5677353841646842e+00 2.3737538582828449e-01 0.0000000000000000e+00  -3.1550475557081271e-02 1.2452471130218111e-01 0.0000000000000000e+00  5.8191033670668557e-01 -5.7475165433861108e-01 0.0000000000000000e+00  1.2105626238026430e+00 -6.9301069691167477e-02 0.0000000000000000e+00  1.9122845771918335e+00 -7.8185666272826448e-01 0.0000000000000000e+00  1.2987452928752903e+00 6.6815766080918645e-02 0.0000000000000000e+00  4.1865127343569952e-01 8.9858387101612990e-03 0.0000000000000000e+00  -3.3506424098788762e-01 -9.2080603928788174e-01 0.0000000000000000e+00  1.3168927592371173e+00 -5.7853957751264629e-01 0.0000000000000000e+00  1.1375015919054412e+00 -1.0465414006865563e+00 0.0000000000000000e+00  1.3163645136204165e+00 -1.1377543807769523e-01 0.0000000000000000e+00  8.7822135978479177e-01 -9.8868017245360859e-02 0.0000000000000000e+00  9.4498129147711663e-01 3.6360653743548788e-01 0.0000000000000000e+00  7.1840873802403959e-01 -5.3538199039887151e-02 0.0000000000000000e+00  1.4646122373474353e-02 -2.7253877920889413e-02 0.0000000000000000e+00  1.3313175687204788e+00 -5.6061749040739305e-03 0.0000000000000000e+00  1.7730293657080982e+00 -5.0398276853400115e-01 0.0000000000000000e+00  1.2830087291459096e+00 3.5464330167473891e-02 0.0000000000000000e+00  1.7402619752349597e+00 -9.7652223268251137e-01 0.0000000000000000e+00  1.0085137632563472e+00 -1.4349598725493612e-01 0.0000000000000000e+00  1.5733925764795220e+00 2.2685878920764837e-03 0.0000000000000000e+00  1.6383593937546106e+00 2.7072610114504309e-01 0.0000000000000000e+00  1.4173615784053895e+00 1.1046785663595121e-01 0.0000000000000000e+00  1.0373280600749872e+00 1.4628567498933770e-01 0.0000000000000000e+00  -1.7998247751684435e-01 2.4059758872715478e-01 0.0000000000000000e+00  8.0280588380802442e-01 2.5579401495949169e-02 0.0000000000000000e+00  1.3874006153916010e+00 4.5558402001891868e-01 0.0000000000000000e+00  1.2838861748816639e+00 -6.5505161074447898e-02 0.0000000000000000e+00  1.2788522311667931e+00 2.0291389810646301e-01 0.0000000000000000e+00  1.5510992533631711e+00 2.6345385385474573e-01 0.0000000000000000e+00  1.3068933907687232e+00 1.2877072601062975e-01 0.0000000000000000e+00  1.1125821689793685e+00 2.2102336390737176e-01 0.0000000000000000e+00  5.8222243174805066e-01 1.8052633963940745e-01 0.0000000000000000e+00  1.9032469341078155e+00 -4.1283050887725431e-01 0.0000000000000000e+00  -6.6760776346454220e-02 3.0040844168656944e-01 0.0000000000000000e+00  1.5812965506698569e+00 -3.9348534150623932e-01 0.0000000000000000e+00  1.6119923579331135e+00 3.8074565248950182e-01 0.0000000000000000e+00  1.5681666557214775e+00 -4.2219899996826821e-01 0.0000000000000000e+00  1.6690184076720216e+00 3.7106703414030362e-01 0.0000000000000000e+00  6.7471352893621606e-01 -1.7985872072800058e-01 0.0000000000000000e+00  1.6022458546679299e+00 4.8849528230462308e-01 0.0000000000000000e+00  1.6494846507344294e+00 -4.7992047630880152e-01 0.0000000000000000e+00  1.4678630510768400e+00 -1.3579988839983412e-01 0.0000000000000000e+00  1.4313465805571565e-01 2.4264030848488638e-01 0.0000000000000000e+00  1.2604515968678667e+00 -2.8186549029381086e-01 0.0000000000000000e+00  1.4741967436308547e+00 -5.5972010059312383e-01 0.0000000000000000e+00  1.5110973084033279e+00 -1.1190680836236340e-01 0.0000000000000000e+00  1.0283664267853492e+00 2.4073658976004506e-01 0.0000000000000000e+00  1.1655904678067930e+00 1.2193814722836994e-01 0.0000000000000000e+00  6.3383875447882376e-01 -1.6037411472500138e-01 0.0000000000000000e+00  1.3346603567681132e+00 -2.0342076407312643e-01 0.0000000000000000e+00  1.9121256867759076e+00 1.0166147944564405e-01 0.0000000000000000e+00  8.5480328562945607e-01 1.4302209278418468e-01 0.0000000000000000e+00  1.0427166733473003e+00 -2.1949957769612027e-01 0.0000000000000000e+00  9.2264364918070096e-01 -1.4557060896655258e-01 0.0000000000000000e+00  -5.0258830716373493e-01 -3.8550706553276520e-01 0.0000000000000000e+00  -7.6384195177057648e-02 6.3771350155288092e-02 0.0000000000000000e+00  8.5684299520816831e-01 1.3687094807826136e-01 0.0000000000000000e+00  7.0129057313139886e-01 6.4509643587433038e-02 0.0000000000000000e+00  1.6405771461369907e+00 9.5512185878091127e-01 0.0000000000000000e+00  1.4484711561815111e+00 -6.2002952999164239e-03 0.0000000000000000e+00  7.2889857691194160e-01 6.4552054894494071e-01 0.0000000000000000e+00  7.2548792283281383e-01 1.8346232165552034e-01 0.0000000000000000e+00  1.4109026075387876e+00 -2.0928066111335275e-01 0.0000000000000000e+00  7.6020828918811467e-01 8.4029417937272796e-02 0.0000000000000000e+00  -6.0632290028968215e-03 -9.0132768853707274e-02 0.0000000000000000e+00  6.1064085504925791e-01 -2.2642572776312851e-02 0.0000000000000000e+00  8.0147231972976618e-01 -2.2387414462885288e-01 0.0000000000000000e+00  1.1391274637994948e+00 1.1869032887785889e+00 0.0000000000000000e+00  1.7470092115298048e+00 9.9345869414237953e-01 0.0000000000000000e+00  4.6999489217362517e-01 7.1114635357782574e-01 0.0000000000000000e+00  3.0070002535702300e-01 -1.9053837675001833e-01 0.0000000000000000e+00  7.9896011283976986e-01 -1.4765334153830872e-01 0.0000000000000000e+00  -1.0381673040149544e-02 5.2919027864645071e-02 0.0000000000000000e+00  1.5468175765473153e+00 3.7979630594917840e-01 0.0000000000000000e+00  -4.7951465033725195e-02 -1.5018530226398718e-02 0.0000000000000000e+00  -1.1297701831107128e-02 1.0602194987052446e-01 0.0000000000000000e+00  1.3524157898357161e+00 2.9995853574104031e-01 0.0000000000000000e+00  1.1731127058501589e+00 1.5698651220091006e-01 0.0000000000000000e+00  7.2277756536544779e-01 -9.4087038882221852e-01 0.0000000000000000e+00  1.0575276975083097e+00 -2.8787831669995864e-02 0.0000000000000000e+00  6.1396346567372639e-01 5.6335152352290169e-02 0.0000000000000000e+00  5.2305578828979504e-01 -1.1416329186183573e-01 0.0000000000000000e+00  8.1237708876607340e-01 8.8016839268667740e-02 0.0000000000000000e+00  1.3601788147585461e+00 -4.4404475863992915e-01 0.0000000000000000e+00  1.1358799368210903e+00 6.7952727153917436e-01 0.0000000000000000e+00  5.8656303329657522e-01 1.3655741362114362e-02 0.0000000000000000e+00  4.1498214008791734e-01 4.2629514539379285e-02 0.0000000000000000e+00  -1.9149012415702787e-01 2.5369283338692730e-02 0.0000000000000000e+00  9.1534776523232642e-01 -9.0968617613873037e-02 0.0000000000000000e+00  1.3242444970093181e+00 2.4827710894415372e-01 0.0000000000000000e+00  9.3286423830790399e-01 1.2607964150198112e-02 0.0000000000000000e+00  2.0261372065663883e+00 1.1580938511033565e-02 0.0000000000000000e+00  1.4589615754574190e+00 4.6003223189198337e-03 0.0000000000000000e+00  1.6165569792224461e+00 5.8710644777691667e-01 0.0000000000000000e+00  7.3981455660766693e-01 1.5120603239290346e-02 0.0000000000000000e+00  1.4565642295247643e+00 3.6672781462277415e-01 0.0000000000000000e+00  1.5953071021055938e+00 4.5893634648532172e-01 0.0000000000000000e+00  1.5735226178500370e+00 4.2907425854408560e-01 0.0000000000000000e+00  1.4667055762617505e+00 1.9005641890086913e-01 0.0000000000000000e+00  1.1142581479720151e+00 2.8016677971579101e-01 0.0000000000000000e+00  1.4057768101911250e+00 1.4986699251464791e-01 0.0000000000000000e+00  1.3865490402958247e+00 -3.3224219325554666e-01 0.0000000000000000e+00  1.4998487160540821e+00 7.5197187904489024e-02 0.0000000000000000e+00  8.4903994772887670e-01 -5.8681867679977395e-01 0.0000000000000000e+00  1.4797394061913718e+00 -7.2063452763927105e-01 0.