<?xml version="1.0"?>
<VTKFile type="UnstructuredGrid"  version="0.1"  >
<UnstructuredGrid>
<Piece  NumberOfPoints="3852" NumberOfCells="7360">
<Points>
<DataArray  type="Float64"  NumberOfComponents="3"  format="ascii">0 0 0  0 0.41 0  2.2 0.41 0  2.2 0 0  0.2 0.15 0  0.15 0.2 0  0.2 0.25 0  0.25 0.2 0  0.2097545161007899 0.1509607359798352 0  0.219134171618224 0.153806023374423 0  0.2277785116509268 0.1584265193848371 0  0.2353553390592504 0.1646446609405956 0  0.2415734806150793 0.1722214883489481 0  0.2461939766255306 0.1808658283816641 0  0.249039264020151 0.1902454838991403 0  0.2490392640201666 0.2097545161007811 0  0.2461939766255869 0.2191341716182 0  0.2415734806151802 0.2277785116509009 0  0.2353553390594108 0.235355339059244 0  0.2277785116510524 0.2415734806150789 0  0.2191341716182962 0.2461939766255471 0  0.209754516100834 0.2490392640201561 0  0.1902454838992189 0.2490392640201666 0  0.1808658283818 0.2461939766255869 0  0.1722214883490991 0.2415734806151802 0  0.164644660940756 0.2353553390594108 0  0.1584265193849211 0.2277785116510524 0  0.1538060233744529 0.2191341716182962 0  0.150960735979844 0.209754516100834 0  0.1509607359798352 0.1902454838992101 0  0.153806023374423 0.180865828381776 0  0.1584265193848371 0.1722214883490732 0  0.1646446609405956 0.1646446609407496 0  0.1722214883489481 0.1584265193849207 0  0.1808658283816641 0.1538060233744694 0  0.1902454838991403 0.150960735979849 0  0.09999999999980318 0 0  0.1999999999996354 0 0  0.2999999999994593 0 0  0.3999999999991452 0 0  0.4999999999988309 0 0  0.599999999998495 0 0  0.6999999999982023 0 0  0.7999999999979096 0 0  0.8999999999975735 0 0  0.9999999999972848 0 0  1.099999999997053 0 0  1.199999999997309 0 0  1.299999999997566 0 0  1.399999999997821 0 0  1.49999999999809 0 0  1.599999999998377 0 0  1.69999999999859 0 0  1.799999999998877 0 0  1.899999999999145 0 0  1.999999999999386 0 0  2.099999999999693 0 0  2.2 0.08199999999981657 0  2.2 0.1639999999995688 0  2.2 0.2459999999995603 0  2.2 0.327999999999785 0  2.100000000000048 0.41 0  2.000000000000269 0.41 0  1.900000000000422 0.41 0  1.800000000000679 0.41 0  1.700000000000931 0.41 0  1.600000000001326 0.41 0  1.500000000001665 0.41 0  1.400000000002032 0.41 0  1.300000000002395 0.41 0  1.200000000002644 0.41 0  1.100000000002865 0.41 0  1.000000000002617 0.41 0  0.900000000002368 0.41 0  0.8000000000021192 0.41 0  0.7000000000018587 0.41 0  0.6000000000015786 0.41 0  0.5000000000013736 0.41 0  0.4000000000010933 0.41 0  0.3000000000008329 0.41 0  0.2000000000005997 0.41 0  0.1000000000003003 0.41 0  0 0.3280000000001975 0  0 0.2460000000004372 0  0 0.1640000000004437 0  0 0.08200000000021695 0  0.439039350479032 0.2235433210862024 0  0.3557293424662716 0.1539377961885917 0  0.3450132387946972 0.2399891502764809 0  0.2900756359792848 0.08507884665974728 0  0.2884413411145515 0.3059878288466324 0  0.2102195502178943 0.3385267178242456 0  0.137328909169326 0.3152847369018352 0  0.08490385663776813 0.2628976192695439 0  0.08063302347471875 0.188368977740952 0  0.1005937615311739 0.1162460982751979 0  0.1621860847198582 0.08598327887900903 0  0.3012864586130264 0.1926027915888804 0  1.999140000000448 0.2049999999995642 0  0.2742354912953259 0.1572259708446958 0  0.2871471664627305 0.2264358039321654 0  0.6542851578645765 0.1981889790488746 0  0.2651366296338276 0.2534562504463119 0  0.2371819217149928 0.0977949043027586 0  1.651678197071202 0.2145186615851206 0  1.349674714201118 0.2086119645070391 0  0.9627539291831038 0.2056711800839285 0  0.2360880502985623 0.2733043913425156 0  1.159884231859056 0.2050429640239795 0  0.2502927927237266 0.1358797630898622 0  0.2080582834123368 0.2835355213895352 0  0.1805439632603489 0.278338480667804 0  0.1486243506827335 0.2626014098227327 0  0.1266658889266303 0.2392753516137401 0  0.1179814841582247 0.2069380844236527 0  0.1225167704961566 0.1764957192948648 0  0.1357996569043286 0.1472158045151807 0  0.1619764829264572 0.126298308975886 0  0.1935640279204225 0.116654032325456 0  1.82457000000085 0.2346439024393236 0  0.8027657238591595 0.149277802568535 0  1.498563450727992 0.2632867809910664 0  0.2770405925201826 0.1924926016722167 0  0.470924801584011 0.09138612536042019 0  0.550693598792917 0.2898604497866635 0  0.381089831438127 0.3238078833671811 0  2.074516462495042 0.125705772324225 0  2.083599037046577 0.2769549245607841 0  0.2692296340100125 0.2210592970306522 0  0.7614733075682367 0.2839235561638241 0  1.536698221979284 0.1258192462655419 0  1.231809489345021 0.1282542717942667 0  1.054759157670174 0.1242749934189342 0  1.754535566851005 0.1223197024158991 0  1.90452621597739 0.1324728094649104 0  0.2672409321155211 0.178737994598723 0  1.254401531996246 0.2902808614622134 0  1.04350934597445 0.2986664252663559 0  0.0749710792305778 0.3208721925318313 0  0.5425289614095572 0.165152457827861 0  0.1663208394680799 0.2644065126118989 0  0.1471335176887868 0.2433864007787126 0  0.1345556779484054 0.219852318055334 0  0.131940483167677 0.1932967226753857 0  0.1941574795820069 0.2685534232066453 0  0.2226696214021025 0.1252682734732412 0  0.2193882214552426 0.2661718674478616 0  0.1396865053227576 0.1677617654469802 0  0.8749487631478475 0.295170577255529 0  1.424301820545763 0.1157348858866879 0  1.918515045506933 0.2902236143624367 0  1.744876807925144 0.306628844405037 0  0.2443979144126529 0.254353837216211 0  0.2569054246570621 0.2306780201523878 0  0.2632507216716993 0.2062296523407826 0  0.4609453431326088 0.3138128990490959 0  0.3578015395476809 0.08253318517696946 0  0.2529777826635333 0.155582948480283 0  0.1580369715200277 0.1487041474358234 0  0.652872088668587 0.3101079993636056 0  0.297147332491062 0.2558065812325378 0  0.6188247313471635 0.1101603945467571 0  0.8951149554961688 0.1123812542864208 0  1.592749166085722 0.2985190085719691 0  1.40420309431358 0.2992155383468256 0  1.649189110727275 0.1000387439201274 0  0.2301663900864273 0.1432830242131801 0  0.2064839406544439 0.1345771465164309 0  0.2548204572493643 0.1702022465417566 0  0.1606700828011604 0.2481621709908606 0  0.2605987457303776 0.1928909671966518 0  0.1826942838524941 0.2594610608897559 0  0.1456438338561037 0.2290651013631561 0  0.1387681034994896 0.2058679665896095 0  1.140902260384949 0.3081952438204152 0  2.123402621966431 0.2039515281261525 0  0.7272188829630218 0.1047469619375249 0  0.2060868819369127 0.2616331638469837 0  0.246763614216289 0.2411610007697902 0  0.1405961691450822 0.1819800466423126 0  1.149638048863541 0.08264492713269313 0  0.1809997740285721 0.1365020267363126 0  1.993198408221569 0.09755938404998035 0  0.2287111352430851 0.2547015941619741 0  0.3818716699056283 0.2060398770290832 0  0.39147508084147 0.2656155699545688 0  0.151201080877373 0.1608659990301362 0  0.0542521118046473 0.1382221876243976 0  0.06190301158313444 0.0685934933767465 0  1.317316039400266 0.1015983144534349 0  0.2176417279723976 0.1415790407114221 0  0.2401571300978209 0.1529210337009423 0  0.2618092962776011 0.3566662607419938 0  0.1941527094396574 0.1377969918002053 0  0.9590486261329707 0.3255353063371385 0  0.1708201090411339 0.1447474051814825 0  1.837592370686806 0.3302992722413595 0  0.3197015570210796 0.1212159119695666 0  0.4155281956943757 0.1409543952531078 0  0.0549491513262805 0.2307535706287103 0  0.1668210562270142 0.3605647861782867 0  0.2854688902460447 0.2093700809023571 0  2.013251581901814 0.3292746985146142 0  0.1192191106244758 0.2809901915857802 0  0.2487958366614321 0.04556523514103697 0  0.09061021186838321 0.2240174335271237 0  1.737143840576958 0.20912817770623 0  0.04515017012776967 0.2784708690411318 0  0.5347554646753627 0.08988970780599832 0  0.977104673723579 0.08241628541188413 0  0.336509991617897 0.2888965225844298 0  0.2569238041969055 0.2173711314485607 0  1.906541186051535 0.2125389476829634 0  0.1762338839607841 0.3102437166134606 0  1.449268841077636 0.201011295143529 0  0.8555371485878378 0.2099663446585434 0  1.837208236203613 0.07556229833764837 0  1.264402545318887 0.1992523923163096 0  1.068181074047183 0.2155119107017876 0  0.3158931250274742 0.3421721218291775 0  0.2731958384900449 0.2373435058667565 0  0.09875906484220501 0.1533097574901186 0  0.7355755433976705 0.2066339904079041 0  1.567440499207928 0.2049999999995983 0  1.329829828222916 0.3295825481537897 0  0.8214190147401245 0.07894167681990104 0  1.525459989258997 0.3394220200696043 0  0.1990897327079506 0.06300531675246424 0  0.244701762210989 0.3062404318132603 0  0.1033853772622983 0.3551443431224104 0  0.1178236825374896 0.07148041782551597 0  0.1558198999929474 0.04409380269139784 0  0.3389178979413869 0.198678920661321 0  0.310790717645908 0.2196004930752872 0  2.125022007676643 0.3402049371791425 0  2.130028889485561 0.06535501282233655 0  0.4821161335597635 0.1626909543876269 0  0.2838678108956019 0.1254276466262967 0  0.5062815929260498 0.2376271077316994 0  1.663059277092996 0.3422301118688678 0  1.82292665764828 0.1574809263836269 0  2.052538557905295 0.05717536030732174 0  0.3078251537889645 0.16056368457456 0  0.8108267070172145 0.3390047366820738 0  1.487254632568403 0.0703866281621833 0  0.155004430757041 0.2369517702015699 0  0.1725545045705267 0.2519594403466565 0  0.1445581653510352 0.2167994984574706 0  0.1420710285613199 0.1942747855116325 0  1.461861739291679 0.3471998553985149 0  0.2372128969196007 0.2453440460936858 0  0.1943665918892754 0.2580518465884657 0  0.2452139232912363 0.1629124725160763 0  0.2555786751481889 0.1825885041235872 0  2.14640473333793 0.2790222779730848 0  2.145589594789407 0.1282024626544199 0  0.1486651579751984 0.1726583296292201 0  0.550000000001476 0.3603327897285098 0  0.0505668771231032 0.3660023622363767 0  1.049999999997169 0.05217028468202135 0  1.244771793631775 0.05744029386223062 0  0.1356759337238615 0.1094447816941579 0  0.5872326411628903 0.2223148728195226 0  0.2168458206248643 0.2558159203714847 0  1.749999999998732 0.05166028789524129 0  0.2855257256666041 0.1763246086558152 0  1.92
[...]
<PointData  Vectors="f_22"> 
<DataArray  type="Float64"  Name="f_22"  NumberOfComponents="3" format="ascii">0.0000000000000000e+00 0.0000000000000000e+00 0.0000000000000000e+00  0.0000000000000000e+00 0.0000000000000000e+00 0.0000000000000000e+00  0.0000000000000000e+00 0.0000000000000000e+00 0.0000000000000000e+00  0.0000000000000000e+00 0.0000000000000000e+00 0.0000000000000000e+00  0.0000000000000000e+00 0.0000000000000000e+00 0.0000000000000000e+00  0.0000000000000000e+00 0.0000000000000000e+00 0.0000000000000000e+00  0.0000000000000000e+00 0.0000000000000000e+00 0.0000000000000000e+00  0.0000000000000000e+00 0.0000000000000000e+00 0.0000000000000000e+00  0.0000000000000000e+00 0.0000000000000000e+00 0.0000000000000000e+00  0.0000000000000000e+00 0.0000000000000000e+00 0.0000000000000000e+00  0.0000000000000000e+00 0.0000000000000000e+00 0.0000000000000000e+00  0.0000000000000000e+00 0.0000000000000000e+00 0.0000000000000000e+00  0.0000000000000000e+00 0.0000000000000000e+00 0.0000000000000000e+00  0.0000000000000000e+00 0.0000000000000000e+00 0.0000000000000000e+00  0.0000000000000000e+00 0.0000000000000000e+00 0.0000000000000000e+00  0.0000000000000000e+00 0.0000000000000000e+00 0.0000000000000000e+00  0.0000000000000000e+00 0.0000000000000000e+00 0.0000000000000000e+00  0.0000000000000000e+00 0.0000000000000000e+00 0.0000000000000000e+00  0.0000000000000000e+00 0.0000000000000000e+00 0.0000000000000000e+00  0.0000000000000000e+00 0.0000000000000000e+00 0.0000000000000000e+00  0.0000000000000000e+00 0.0000000000000000e+00 0.0000000000000000e+00  0.0000000000000000e+00 0.0000000000000000e+00 0.0000000000000000e+00  0.0000000000000000e+00 0.0000000000000000e+00 0.0000000000000000e+00  0.0000000000000000e+00 0.0000000000000000e+00 0.0000000000000000e+00  0.0000000000000000e+00 0.0000000000000000e+00 0.0000000000000000e+00  0.0000000000000000e+00 0.0000000000000000e+00 0.0000000000000000e+00  0.0000000000000000e+00 0.0000000000000000e+00 0.0000000000000000e+00  0.0000000000000000e+00 0.0000000000000000e+00 0.0000000000000000e+00  0.0000000000000000e+00 0.0000000000000000e+00 0.0000000000000000e+00  0.0000000000000000e+00 0.0000000000000000e+00 0.0000000000000000e+00  0.0000000000000000e+00 0.0000000000000000e+00 0.0000000000000000e+00  0.0000000000000000e+00 0.0000000000000000e+00 0.0000000000000000e+00  0.0000000000000000e+00 0.0000000000000000e+00 0.0000000000000000e+00  0.0000000000000000e+00 0.0000000000000000e+00 0.0000000000000000e+00  0.0000000000000000e+00 0.0000000000000000e+00 0.0000000000000000e+00  0.0000000000000000e+00 0.0000000000000000e+00 0.0000000000000000e+00  0.0000000000000000e+00 0.0000000000000000e+00 0.0000000000000000e+00  0.0000000000000000e+00 0.0000000000000000e+00 0.0000000000000000e+00  0.0000000000000000e+00 0.0000000000000000e+00 0.0000000000000000e+00  0.0000000000000000e+00 0.0000000000000000e+00 0.0000000000000000e+00  0.0000000000000000e+00 0.0000000000000000e+00 0.0000000000000000e+00  0.0000000000000000e+00 0.0000000000000000e+00 0.0000000000000000e+00  0.0000000000000000e+00 0.0000000000000000e+00 0.0000000000000000e+00  0.0000000000000000e+00 0.0000000000000000e+00 0.0000000000000000e+00  0.0000000000000000e+00 0.0000000000000000e+00 0.0000000000000000e+00  0.0000000000000000e+00 0.0000000000000000e+00 0.0000000000000000e+00  0.0000000000000000e+00 0.0000000000000000e+00 0.0000000000000000e+00  0.0000000000000000e+00 0.0000000000000000e+00 0.0000000000000000e+00  0.0000000000000000e+00 0.0000000000000000e+00 0.0000000000000000e+00  0.0000000000000000e+00 0.0000000000000000e+00 0.0000000000000000e+00  0.0000000000000000e+00 0.0000000000000000e+00 0.0000000000000000e+00  0.0000000000000000e+00 0.0000000000000000e+00 0.0000000000000000e+00  0.0000000000000000e+00 0.0000000000000000e+00 0.0000000000000000e+00  0.0000000000000000e+00 0.0000000000000000e+00 0.0000000000000000e+00  0.0000000000000000e+00 0.0000000000000000e+00 0.0000000000000000e+00  0.0000000000000000e+00 0.0000000000000000e+00 0.0000000000000000e+00  0.0000000000000000e+00 0.0000000000000000e+00 0.0000000000000000e+00  1.0967620385259400e+00 -3.8528766290648047e-04 0.0000000000000000e+00  1.2595071287329049e+00 -1.9871347827843354e-03 0.0000000000000000e+00  1.2620043700737893e+00 -2.2276761453775586e-03 0.0000000000000000e+00  1.0969617134747121e+00 -1.3202040863552689e-04 0.0000000000000000e+00  0.0000000000000000e+00 0.0000000000000000e+00 0.0000000000000000e+00  0.0000000000000000e+00 0.0000000000000000e+00 0.0000000000000000e+00  0.0000000000000000e+00 0.0000000000000000e+00 0.0000000000000000e+00  0.0000000000000000e+00 0.0000000000000000e+00 0.0000000000000000e+00  0.0000000000000000e+00 0.0000000000000000e+00 0.0000000000000000e+00  0.0000000000000000e+00 0.0000000000000000e+00 0.0000000000000000e+00  0.0000000000000000e+00 0.0000000000000000e+00 0.0000000000000000e+00  0.0000000000000000e+00 0.0000000000000000e+00 0.0000000000000000e+00  0.0000000000000000e+00 0.0000000000000000e+00 0.0000000000000000e+00  0.0000000000000000e+00 0.0000000000000000e+00 0.0000000000000000e+00  0.0000000000000000e+00 0.0000000000000000e+00 0.0000000000000000e+00  0.0000000000000000e+00 0.0000000000000000e+00 0.0000000000000000e+00  0.0000000000000000e+00 0.0000000000000000e+00 0.0000000000000000e+00  0.0000000000000000e+00 0.0000000000000000e+00 0.0000000000000000e+00  0.0000000000000000e+00 0.0000000000000000e+00 0.0000000000000000e+00  0.0000000000000000e+00 0.0000000000000000e+00 0.0000000000000000e+00  0.0000000000000000e+00 0.0000000000000000e+00 0.0000000000000000e+00  0.0000000000000000e+00 0.0000000000000000e+00 0.0000000000000000e+00  0.0000000000000000e+00 0.0000000000000000e+00 0.0000000000000000e+00  0.0000000000000000e+00 0.0000000000000000e+00 0.0000000000000000e+00  0.0000000000000000e+00 0.0000000000000000e+00 0.0000000000000000e+00  9.6000005121606935e-01 0.0000000000000000e+00 0.0000000000000000e+00  1.4400000768254257e+00 0.0000000000000000e+00 0.0000000000000000e+00  1.4400000768280046e+00 0.0000000000000000e+00 0.0000000000000000e+00  9.6000005121970877e-01 0.0000000000000000e+00 0.0000000000000000e+00  -3.9336086575973683e-01 1.1425605237619292e-01 0.0000000000000000e+00  4.8678192036086498e-01 -1.7882159013969404e-01 0.0000000000000000e+00  -2.9415237991314621e-02 -2.1934911821241443e-01 0.0000000000000000e+00  1.8768942371552939e+00 -8.5069087776128205e-02 0.0000000000000000e+00  1.9218024349860476e+00 5.3912780002516481e-02 0.0000000000000000e+00  1.4526883060364546e+00 2.0330528802258643e-01 0.0000000000000000e+00  1.3152200080224996e+00 3.4691915274134527e-01 0.0000000000000000e+00  1.3323099190016587e+00 2.5861644078366469e-01 0.0000000000000000e+00  1.3061561844539238e+00 -7.3115205767358776e-02 0.0000000000000000e+00  1.2638978926441904e+00 -3.2749609411212632e-01 0.0000000000000000e+00  1.4115121396510222e+00 -3.8388632726483463e-01 0.0000000000000000e+00  -2.0039318284367794e-01 -1.6119393112769695e-01 0.0000000000000000e+00  1.2589739663487336e+00 -2.0540117401785307e-02 0.0000000000000000e+00  4.6146542813381680e-02 -1.1860953551779042e-01 0.0000000000000000e+00  -1.3594958965558146e-01 -1.7145891316815384e-03 0.0000000000000000e+00  1.0915993182418033e+00 -6.7075275142247648e-01 0.0000000000000000e+00  3.1128240946607405e-01 4.2843265654312603e-02 0.0000000000000000e+00  1.8919185360560011e+00 -2.5814578583842368e-01 0.0000000000000000e+00  1.3245984324773039e+00 -5.2142510614773485e-02 0.0000000000000000e+00  1.4610252564393387e+00 7.0829189332963394e-02 0.0000000000000000e+00  1.3724439787791318e+00 1.7144809317058568e-01 0.0000000000000000e+00  1.7610691494512953e+00 1.9223226087661185e-01 0.0000000000000000e+00  1.6486939266639806e+00 -8.2720886077005853e-02 0.0000000000000000e+00  8.5930153101738160e-01 -7.0903527429168486e-02 0.0000000000000000e+00  2.0026840528724170e+00 4.2504134624462403e-01 0.0000000000000000e+00  1.8685683377183673e+00 6.3514880120926631e-01 0.0000000000000000e+00  1.4945909353313014e+00 7.7035264071227416e-01 0.0000000000000000e+00  1.1469644392299057e+00 5.5734232735964651e-01 0.0000000000000000e+00  9.3928741744728306e-01 1.0096923722389108e-01 0.0000000000000000e+00  9.8493251834509665e-01 -4.0356958437066082e-01 0.0000000000000000e+00  1.2911407071634018e+00 -7.0642193196981129e-01 0.0000000000000000e+00  1.6492145899586832e+00 -7.2786163491494005e-01 0.0000000000000000e+00  1.9070490617278051e+00 -5.4274433829163127e-01 0.0000000000000000e+00  1.2158635409903729e+00 2.4712419305709159e-02 0.0000000000000000e+00  1.9120347530069020e+00 5.4458506833782094e-01 0.0000000000000000e+00  1.4274879315870836e+00 8.4312029132627017e-02 0.0000000000000000e+00  -1.1918189394952498e-01 -1.0891281208054376e-01 0.0000000000000000e+00  1.6184057559499281e+00 3.8102333259386845e-01 0.0000000000000000e+00  2.0006322355499950e+00 -3.1958841818156919e-01 0.0000000000000000e+00  1.7175391743780251e+00 -4.8184106004479810e-02 0.0000000000000000e+00  1.2292087908055256e+00 -2.7184521471314512e-03 0.0000000000000000e+00  1.2537035115085893e+00 -7.0197414061194015e-03 0.0000000000000000e+00  -1.0138963495409380e-01 4.7135484029560720e-02 0.0000000000000000e+00  1.1565604852980598e+00 1.0177522566346753e-01 0.0000000000000000e+00  1.2323402048498320e+00 1.8045803342948495e-02 0.0000000000000000e+00  1.5511625520624213e+00 2.6727855280076443e-02 0.0000000000000000e+00  1.0041996282617125e+00 2.2073740812123571e-02 0.0000000000000000e+00  1.2830462158154039e+00 -5.8267577285626548e-04 0.0000000000000000e+00  1.2280671200118345e+00 1.2392143691374917e-02 0.0000000000000000e+00  -6.6736599744773140e-02 -1.3955428306887241e-01 0.0000000000000000e+00  1.2825094468877789e+00 4.7913117816364106e-02 0.0000000000000000e+00  1.4045154700675559e+00 -2.2118136429203100e-01 0.0000000000000000e+00  1.0787160294561089e+00 1.7038711176594987e-01 0.0000000000000000e+00  6.4880784443902384e-01 5.2315604909986313e-01 0.0000000000000000e+00  1.7473102147352684e+00 8.5358091630635180e-01 0.0000000000000000e+00  1.2345195196158738e+00 9.4055997687606685e-01 0.0000000000000000e+00  7.5930014062064688e-01 5.0754150859416525e-01 0.0000000000000000e+00  6.4569203893527849e-01 -2.0226712338835878e-01 0.0000000000000000e+00  2.0254587129220063e+00 5.8847284532247190e-01 0.0000000000000000e+00  1.9033111684544144e+00 -3.1859779979815478e-01 0.0000000000000000e+00  1.5222701839059989e+00 2.0125685687475411e-01 0.0000000000000000e+00  9.6600723587938619e-01 -8.0529854998293671e-01 0.0000000000000000e+00  1.0412839760307999e+00 1.2849570534539617e-01 0.0000000000000000e+00  1.2349418152072302e+00 -1.1967191718014587e-01 0.0000000000000000e+00  1.2648071079520782e+00 -5.6415085523636279e-03 0.0000000000000000e+00  1.2200016055794922e+00 -4.2926791363848259e-03 0.0000000000000000e+00  2.9840068623870436e-01 4.1760017275690446e-02 0.0000000000000000e+00  -6.9385254847917591e-02 1.0175365301902438e-01 0.0000000000000000e+00  -6.1714532184525155e-02 -5.2483737884781827e-03 0.0000000000000000e+00  1.8160223866296079e+00 -7.8015529154293129e-03 0.0000000000000000e+00  1.9106437326997714e+00 9.7436506271245976e-02 0.0000000000000000e+00  -1.6927144669066811e-02 -7.9832719588467341e-02 0.0000000000000000e+00  1.5115291397952892e+00 -1.0493871038375127e+00 0.0000000000000000e+00  1.4475267979474205e+00 -3.3233914039453516e-01 0.0000000000000000e+00  4.7428711204448049e-01 -3.9272860183819085e-02 0.0000000000000000e+00  1.1728368570695118e+00 -1.6435621215210655e-01 0.0000000000000000e+00  1.2088453749824970e+00 2.3756387955079825e-02 0.0000000000000000e+00  1.2637765495012492e+00 5.0771785810755289e-02 0.0000000000000000e+00  1.2799085651828543e+00 4.3461310352659210e-02 0.0000000000000000e+00  1.1752048716606824e+00 -3.3365070557613147e-02 0.0000000000000000e+00  4.0103027980375416e-01 -4.0217413426113041e-02 0.0000000000000000e+00  1.6836956758713069e+00 -3.4962321147222752e-01 0.0000000000000000e+00  -5.6822535195432899e-02 -1.0719139937975126e-01 0.0000000000000000e+00  1.5122818338139978e+00 1.1127051022974939e+00 0.0000000000000000e+00  -4.2092367586852315e-02 -6.9651034847143536e-02 0.0000000000000000e+00  1.8933594985467970e+00 7.6775743383255834e-01 0.0000000000000000e+00  8.4044695192985275e-01 9.1843634345530434e-01 0.0000000000000000e+00  4.2937948455202607e-01 1.9265695174804495e-01 0.0000000000000000e+00  1.0424692645367371e+00 6.1081811553571792e-02 0.0000000000000000e+00  1.2624008858442597e+00 -7.6005792359689550e-03 0.0000000000000000e+00  1.7183011986704513e+00 1.4026766845026128e-01 0.0000000000000000e+00  1.4154696384458165e+00 2.4354344691519902e-01 0.0000000000000000e+00  -4.4385997439402324e-02 8.8080930552424955e-02 0.0000000000000000e+00  5.9611179626477040e-01 -6.3621358421709162e-01 0.0000000000000000e+00  1.0077744063791805e+00 3.2066107578530310e-02 0.0000000000000000e+00  1.9343234636740587e+00 -8.0844850702444637e-01 0.0000000000000000e+00  1.1627236019145339e+00 -3.7726455231926610e-04 0.0000000000000000e+00  3.1917482888296189e-01 2.1437440092875199e-02 0.0000000000000000e+00  -4.0170440367092430e-01 -3.0438815389262103e-01 0.0000000000000000e+00  8.0045712157290438e-01 -1.7863772938971953e-01 0.0000000000000000e+00  1.1645098065197128e+00 -1.0935492861462113e+00 0.0000000000000000e+00  1.3193709271069405e+00 -1.3436822557509334e-01 0.0000000000000000e+00  8.8351446099188580e-01 -1.1177530256838929e-01 0.0000000000000000e+00  1.1624604646722119e+00 -2.7893029620036744e-02 0.0000000000000000e+00  6.7708398644009227e-01 -6.4516522986970901e-02 0.0000000000000000e+00  -1.0166604162673745e-02 -5.2631670392177393e-02 0.0000000000000000e+00  1.3797412719160840e+00 6.2950920087455356e-02 0.0000000000000000e+00  1.7728081223035259e+00 -5.1962754544063694e-01 0.0000000000000000e+00  1.2306372243598140e+00 -1.3252057430224021e-01 0.0000000000000000e+00  1.7657411027183043e+00 -1.0054064927999007e+00 0.0000000000000000e+00  1.0925487473663238e+00 -5.7981099044682291e-04 0.0000000000000000e+00  1.6000851650641019e+00 -3.7238627695933467e-02 0.0000000000000000e+00  1.4074460930415098e+00 2.9749939704819456e-01 0.0000000000000000e+00  1.4142391810761172e+00 8.8501021170597535e-02 0.0000000000000000e+00  1.0275877720642845e+00 1.5723618365688941e-01 0.0000000000000000e+00  -1.7562742861240996e-01 -5.3971129292954723e-02 0.0000000000000000e+00  1.0979974953032474e+00 -1.3251367090184624e-03 0.0000000000000000e+00  1.3636890736080831e+00 4.3279486411174251e-01 0.0000000000000000e+00  1.3550859981118835e+00 -8.4530967698832241e-02 0.0000000000000000e+00  1.2708962449927319e+00 1.6433699857080469e-01 0.0000000000000000e+00  1.2036234748153529e+00 -5.8760080343574619e-02 0.0000000000000000e+00  1.3038911159649220e+00 1.1687197652886570e-01 0.0000000000000000e+00  1.3175260038381249e+00 1.4777116348814906e-01 0.0000000000000000e+00  9.6105089488679818e-01 -9.8776966041710032e-02 0.0000000000000000e+00  1.8232546895055930e+00 -1.0125735278994752e-01 0.0000000000000000e+00  -4.9857123971280233e-02 6.7533539503981235e-02 0.0000000000000000e+00  1.2398946030418612e+00 2.4093552646944218e-02 0.0000000000000000e+00  1.5774408196424885e+00 3.9751945300455155e-01 0.0000000000000000e+00  1.3944579666590935e+00 6.3197038226058100e-02 0.0000000000000000e+00  1.4672833522836870e+00 5.4249328385510742e-01 0.0000000000000000e+00  1.0552105497095015e+00 -2.1246453964406278e-03 0.0000000000000000e+00  1.3896133181166752e+00 -1.2329481701062950e-01 0.0000000000000000e+00  1.7636350048572884e+00 -4.0188205361059448e-01 0.0000000000000000e+00  1.5917098154344538e+00 -2.5434507932936144e-03 0.0000000000000000e+00  -3.3951723175207935e-02 6.0250437221438677e-02 0.0000000000000000e+00  1.2694087693392508e+00 -3.2151840244863861e-01 0.0000000000000000e+00  1.0683567719483600e+00 -4.3214852392256681e-01 0.0000000000000000e+00  1.2950911445901339e+00 2.8294151785351079e-02 0.0000000000000000e+00  9.7957405689496757e-01 -1.0253219056284329e-02 0.0000000000000000e+00  1.0314308713702072e+00 2.0942972599040335e-01 0.0000000000000000e+00  8.9828764517991633e-01 5.0078212323330505e-02 0.0000000000000000e+00  1.3805215972240861e+00 -2.2612752334544045e-01 0.0000000000000000e+00  1.8841291539159180e+00 1.9681133998364997e-01 0.0000000000000000e+00  8.4646826084251447e-01 1.3822751515204254e-01 0.0000000000000000e+00  1.0613253664020454e+00 -2.4148460132593105e-01 0.0000000000000000e+00  9.5718566416726680e-01 -1.5998746058893565e-01 0.0000000000000000e+00  -3.1060143393910455e-01 -2.7212508947465230e-01 0.0000000000000000e+00  -2.3559009666939279e-01 -1.1488928274448536e-01 0.0000000000000000e+00  1.0155566952578043e+00 -9.4201380412601752e-04 0.0000000000000000e+00  9.7725714977628109e-01 -5.8148967455547802e-04 0.0000000000000000e+00  1.0338040718117734e+00 7.2125132705059780e-01 0.0000000000000000e+00  1.4233810361148675e+00 -7.9439724056347444e-02 0.0000000000000000e+00  3.0668063320133321e-01 4.8641279004894272e-01 0.0000000000000000e+00  9.8318038736728230e-01 2.8256532014005301e-02 0.0000000000000000e+00  1.2829076971810662e+00 2.3127850060680400e-02 0.0000000000000000e+00  8.9914080962517662e-01 -5.7662888046279104e-04 0.0000000000000000e+00  1.1636031850165247e-01 -1.7152053755513610e-01 0.0000000000000000e+00  1.0242605886478906e+00 1.0716914866323871e-01 0.0000000000000000e+00  9.6132616035297203e-01 -2.3754996325066616e-02 0.0000000000000000e+00  1.0921081927831124e+00 1.1313677242316293e+00 0.0000000000000000e+00  1.6681982267395150e+00 9.5792623142814781e-01 0.0000000000000000e+00  4.4954002921723613e-01 6.4447874750880196e-01 0.0000000000000000e+00  3.0543024478126601e-01 -2.5699497573323887e-01 0.0000000000000000e+00  7.8066599485116506e-01 4.0449440349830952e-02 0.0000000000000000e+00  -2.1550671248154876e-02 5.3790298177480031e-02 0.0000000000000000e+00  1.4263217928827803e+00 3.6843406158624881e-01 0.0000000000000000e+00  -6.1398039091793741e-02 -6.9158493475651117e-02 0.0000000000000000e+00  -3.4188030451520052e-02 -8.3409508095047782e-02 0.0000000000000000e+00  1.2463917277068866e+00 -3.9289046811151881e-03 0.0000000000000000e+00  1.2362807969458085e+00 -1.9950473048738543e-03 0.0000000000000000e+00  7.4596433598342893e-01 -9.9432989119176418e-01 0.0000000000000000e+00  1.2020283398567286e+00 -1.6342808607096693e-01 0.0000000000000000e+00  6.1191241857578760e-01 5.2762286919633486e-02 0.0000000000000000e+00  6.3170924994319511e-01 1.4259994023113143e-02 0.0000000000000000e+00  6.1989745406790919e-01 2.2414109949899829e-03 0.0000000000000000e+00  1.3816521457817268e+00 -4.7746919402615629e-01 0.0000000000000000e+00  1.0117127091798161e+00 -1.9358596936316394e-01 0.0000000000000000e+00  4.8331576241537350e-01 2.2491049116706272e-02 0.0000000000000000e+00  8.3139679730282290e-01 -6.7952766021931298e-03 0.0000000000000000e+00  -7.9510507782544079e-02 -1.5949359570665678e-01 0.0000000000000000e+00  9.7491096844192593e-01 2.4133088940807984e-03 0.0000000000000000e+00  1.4701218152301103e+00 2.1650002593398918e-01 0.0000000000000000e+00  8.2360163859736979e-01 -1.2610475700075377e-02 0.0000000000000000e+00  1.8292922867669223e+00 1.0914519500629008e-01 0.0000000000000000e+00  1.4588320997826640e+00 -1.1729467255902628e-02 0.0000000000000000e+00  1.5744852830079188e+00 5.7771420369371762e-01 0.0000000000000000e+00  8.3745641194531506e-01 4.7587369450595808e-02 0.0000000000000000e+00  1.2244933096613797e+00 -7.8441740051434936e-02 0.0000000000000000e+00  1.2497911896108722e+00 -6.3886196705206191e-02 0.0000000000000000e+00  1.1902253609262265e+00 -7.7751677534757993e-02 0.0000000000000000e+00  1.2618903632428546e+00 -3.0143619634460245e-02 0.0000000000000000e+00  1.2428515476086706e+00 -2.5145108781498480e-02 0.0000000000000000e+00  1.3264725986797949e+00 3.3969402237800234e-02 0.0000000000000000e+00  1.3246244450944846e+00 -1.0664293846251156e-01 0.0000000000000000e+00  1.4410892056313047e+00 -8.2334099368086028e-02 0.0000000000000000e+00  1.1623223896003350e+00 1.1467437065425228e-02 0.0000000000000000e+00  1.3351437103812132