<?xml version="1.0"?>
<VTKFile type="UnstructuredGrid"  version="0.1"  >
<UnstructuredGrid>
<Piece  NumberOfPoints="3852" NumberOfCells="7360">
<Points>
<DataArray  type="Float64"  NumberOfComponents="3"  format="ascii">0 0 0  0 0.41 0  2.2 0.41 0  2.2 0 0  0.2 0.15 0  0.15 0.2 0  0.2 0.25 0  0.25 0.2 0  0.2097545161007899 0.1509607359798352 0  0.219134171618224 0.153806023374423 0  0.2277785116509268 0.1584265193848371 0  0.2353553390592504 0.1646446609405956 0  0.2415734806150793 0.1722214883489481 0  0.2461939766255306 0.1808658283816641 0  0.249039264020151 0.1902454838991403 0  0.2490392640201666 0.2097545161007811 0  0.2461939766255869 0.2191341716182 0  0.2415734806151802 0.2277785116509009 0  0.2353553390594108 0.235355339059244 0  0.2277785116510524 0.2415734806150789 0  0.2191341716182962 0.2461939766255471 0  0.209754516100834 0.2490392640201561 0  0.1902454838992189 0.2490392640201666 0  0.1808658283818 0.2461939766255869 0  0.1722214883490991 0.2415734806151802 0  0.164644660940756 0.2353553390594108 0  0.1584265193849211 0.2277785116510524 0  0.1538060233744529 0.2191341716182962 0  0.150960735979844 0.209754516100834 0  0.1509607359798352 0.1902454838992101 0  0.153806023374423 0.180865828381776 0  0.1584265193848371 0.1722214883490732 0  0.1646446609405956 0.1646446609407496 0  0.1722214883489481 0.1584265193849207 0  0.1808658283816641 0.1538060233744694 0  0.1902454838991403 0.150960735979849 0  0.09999999999980318 0 0  0.1999999999996354 0 0  0.2999999999994593 0 0  0.3999999999991452 0 0  0.4999999999988309 0 0  0.599999999998495 0 0  0.6999999999982023 0 0  0.7999999999979096 0 0  0.8999999999975735 0 0  0.9999999999972848 0 0  1.099999999997053 0 0  1.199999999997309 0 0  1.299999999997566 0 0  1.399999999997821 0 0  1.49999999999809 0 0  1.599999999998377 0 0  1.69999999999859 0 0  1.799999999998877 0 0  1.899999999999145 0 0  1.999999999999386 0 0  2.099999999999693 0 0  2.2 0.08199999999981657 0  2.2 0.1639999999995688 0  2.2 0.2459999999995603 0  2.2 0.327999999999785 0  2.100000000000048 0.41 0  2.000000000000269 0.41 0  1.900000000000422 0.41 0  1.800000000000679 0.41 0  1.700000000000931 0.41 0  1.600000000001326 0.41 0  1.500000000001665 0.41 0  1.400000000002032 0.41 0  1.300000000002395 0.41 0  1.200000000002644 0.41 0  1.100000000002865 0.41 0  1.000000000002617 0.41 0  0.900000000002368 0.41 0  0.8000000000021192 0.41 0  0.7000000000018587 0.41 0  0.6000000000015786 0.41 0  0.5000000000013736 0.41 0  0.4000000000010933 0.41 0  0.3000000000008329 0.41 0  0.2000000000005997 0.41 0  0.1000000000003003 0.41 0  0 0.3280000000001975 0  0 0.2460000000004372 0  0 0.1640000000004437 0  0 0.08200000000021695 0  0.439039350479032 0.2235433210862024 0  0.3557293424662716 0.1539377961885917 0  0.3450132387946972 0.2399891502764809 0  0.2900756359792848 0.08507884665974728 0  0.2884413411145515 0.3059878288466324 0  0.2102195502178943 0.3385267178242456 0  0.137328909169326 0.3152847369018352 0  0.08490385663776813 0.2628976192695439 0  0.08063302347471875 0.188368977740952 0  0.1005937615311739 0.1162460982751979 0  0.1621860847198582 0.08598327887900903 0  0.3012864586130264 0.1926027915888804 0  1.999140000000448 0.2049999999995642 0  0.2742354912953259 0.1572259708446958 0  0.2871471664627305 0.2264358039321654 0  0.6542851578645765 0.1981889790488746 0  0.2651366296338276 0.2534562504463119 0  0.2371819217149928 0.0977949043027586 0  1.651678197071202 0.2145186615851206 0  1.349674714201118 0.2086119645070391 0  0.9627539291831038 0.2056711800839285 0  0.2360880502985623 0.2733043913425156 0  1.159884231859056 0.2050429640239795 0  0.2502927927237266 0.1358797630898622 0  0.2080582834123368 0.2835355213895352 0  0.1805439632603489 0.278338480667804 0  0.1486243506827335 0.2626014098227327 0  0.1266658889266303 0.2392753516137401 0  0.1179814841582247 0.2069380844236527 0  0.1225167704961566 0.1764957192948648 0  0.1357996569043286 0.1472158045151807 0  0.1619764829264572 0.126298308975886 0  0.1935640279204225 0.116654032325456 0  1.82457000000085 0.2346439024393236 0  0.8027657238591595 0.149277802568535 0  1.498563450727992 0.2632867809910664 0  0.2770405925201826 0.1924926016722167 0  0.470924801584011 0.09138612536042019 0  0.550693598792917 0.2898604497866635 0  0.381089831438127 0.3238078833671811 0  2.074516462495042 0.125705772324225 0  2.083599037046577 0.2769549245607841 0  0.2692296340100125 0.2210592970306522 0  0.7614733075682367 0.2839235561638241 0  1.536698221979284 0.1258192462655419 0  1.231809489345021 0.1282542717942667 0  1.054759157670174 0.1242749934189342 0  1.754535566851005 0.1223197024158991 0  1.90452621597739 0.1324728094649104 0  0.2672409321155211 0.178737994598723 0  1.254401531996246 0.2902808614622134 0  1.04350934597445 0.2986664252663559 0  0.0749710792305778 0.3208721925318313 0  0.5425289614095572 0.165152457827861 0  0.1663208394680799 0.2644065126118989 0  0.1471335176887868 0.2433864007787126 0  0.1345556779484054 0.219852318055334 0  0.131940483167677 0.1932967226753857 0  0.1941574795820069 0.2685534232066453 0  0.2226696214021025 0.1252682734732412 0  0.2193882214552426 0.2661718674478616 0  0.1396865053227576 0.1677617654469802 0  0.8749487631478475 0.295170577255529 0  1.424301820545763 0.1157348858866879 0  1.918515045506933 0.2902236143624367 0  1.744876807925144 0.306628844405037 0  0.2443979144126529 0.254353837216211 0  0.2569054246570621 0.2306780201523878 0  0.2632507216716993 0.2062296523407826 0  0.4609453431326088 0.3138128990490959 0  0.3578015395476809 0.08253318517696946 0  0.2529777826635333 0.155582948480283 0  0.1580369715200277 0.1487041474358234 0  0.652872088668587 0.3101079993636056 0  0.297147332491062 0.2558065812325378 0  0.6188247313471635 0.1101603945467571 0  0.8951149554961688 0.1123812542864208 0  1.592749166085722 0.2985190085719691 0  1.40420309431358 0.2992155383468256 0  1.649189110727275 0.1000387439201274 0  0.2301663900864273 0.1432830242131801 0  0.2064839406544439 0.1345771465164309 0  0.2548204572493643 0.1702022465417566 0  0.1606700828011604 0.2481621709908606 0  0.2605987457303776 0.1928909671966518 0  0.1826942838524941 0.2594610608897559 0  0.1456438338561037 0.2290651013631561 0  0.1387681034994896 0.2058679665896095 0  1.140902260384949 0.3081952438204152 0  2.123402621966431 0.2039515281261525 0  0.7272188829630218 0.1047469619375249 0  0.2060868819369127 0.2616331638469837 0  0.246763614216289 0.2411610007697902 0  0.1405961691450822 0.1819800466423126 0  1.149638048863541 0.08264492713269313 0  0.1809997740285721 0.1365020267363126 0  1.993198408221569 0.09755938404998035 0  0.2287111352430851 0.2547015941619741 0  0.3818716699056283 0.2060398770290832 0  0.39147508084147 0.2656155699545688 0  0.151201080877373 0.1608659990301362 0  0.0542521118046473 0.1382221876243976 0  0.06190301158313444 0.0685934933767465 0  1.317316039400266 0.1015983144534349 0  0.2176417279723976 0.1415790407114221 0  0.2401571300978209 0.1529210337009423 0  0.2618092962776011 0.3566662607419938 0  0.1941527094396574 0.1377969918002053 0  0.9590486261329707 0.3255353063371385 0  0.1708201090411339 0.1447474051814825 0  1.837592370686806 0.3302992722413595 0  0.3197015570210796 0.1212159119695666 0  0.4155281956943757 0.1409543952531078 0  0.0549491513262805 0.2307535706287103 0  0.1668210562270142 0.3605647861782867 0  0.2854688902460447 0.2093700809023571 0  2.013251581901814 0.3292746985146142 0  0.1192191106244758 0.2809901915857802 0  0.2487958366614321 0.04556523514103697 0  0.09061021186838321 0.2240174335271237 0  1.737143840576958 0.20912817770623 0  0.04515017012776967 0.2784708690411318 0  0.5347554646753627 0.08988970780599832 0  0.977104673723579 0.08241628541188413 0  0.336509991617897 0.2888965225844298 0  0.2569238041969055 0.2173711314485607 0  1.906541186051535 0.2125389476829634 0  0.1762338839607841 0.3102437166134606 0  1.449268841077636 0.201011295143529 0  0.8555371485878378 0.2099663446585434 0  1.837208236203613 0.07556229833764837 0  1.264402545318887 0.1992523923163096 0  1.068181074047183 0.2155119107017876 0  0.3158931250274742 0.3421721218291775 0  0.2731958384900449 0.2373435058667565 0  0.09875906484220501 0.1533097574901186 0  0.7355755433976705 0.2066339904079041 0  1.567440499207928 0.2049999999995983 0  1.329829828222916 0.3295825481537897 0  0.8214190147401245 0.07894167681990104 0  1.525459989258997 0.3394220200696043 0  0.1990897327079506 0.06300531675246424 0  0.244701762210989 0.3062404318132603 0  0.1033853772622983 0.3551443431224104 0  0.1178236825374896 0.07148041782551597 0  0.1558198999929474 0.04409380269139784 0  0.3389178979413869 0.198678920661321 0  0.310790717645908 0.2196004930752872 0  2.125022007676643 0.3402049371791425 0  2.130028889485561 0.06535501282233655 0  0.4821161335597635 0.1626909543876269 0  0.2838678108956019 0.1254276466262967 0  0.5062815929260498 0.2376271077316994 0  1.663059277092996 0.3422301118688678 0  1.82292665764828 0.1574809263836269 0  2.052538557905295 0.05717536030732174 0  0.3078251537889645 0.16056368457456 0  0.8108267070172145 0.3390047366820738 0  1.487254632568403 0.0703866281621833 0  0.155004430757041 0.2369517702015699 0  0.1725545045705267 0.2519594403466565 0  0.1445581653510352 0.2167994984574706 0  0.1420710285613199 0.1942747855116325 0  1.461861739291679 0.3471998553985149 0  0.2372128969196007 0.2453440460936858 0  0.1943665918892754 0.2580518465884657 0  0.2452139232912363 0.1629124725160763 0  0.2555786751481889 0.1825885041235872 0  2.14640473333793 0.2790222779730848 0  2.145589594789407 0.1282024626544199 0  0.1486651579751984 0.1726583296292201 0  0.550000000001476 0.3603327897285098 0  0.0505668771231032 0.3660023622363767 0  1.049999999997169 0.05217028468202135 0  1.244771793631775 0.05744029386223062 0  0.1356759337238615 0.1094447816941579 0  0.5872326411628903 0.2223148728195226 0  0.2168458206248643 0.2558159203714847 0  1.749999999998732 0.05166028789524129 0  0.2855257256666041 0.1763246086558152 0  1.92
[...]
<PointData  Vectors="f_22"> 
<DataArray  type="Float64"  Name="f_22"  NumberOfComponents="3" format="ascii">0.0000000000000000e+00 0.0000000000000000e+00 0.0000000000000000e+00  0.0000000000000000e+00 0.0000000000000000e+00 0.0000000000000000e+00  0.0000000000000000e+00 0.0000000000000000e+00 0.0000000000000000e+00  0.0000000000000000e+00 0.0000000000000000e+00 0.0000000000000000e+00  0.0000000000000000e+00 0.0000000000000000e+00 0.0000000000000000e+00  0.0000000000000000e+00 0.0000000000000000e+00 0.0000000000000000e+00  0.0000000000000000e+00 0.0000000000000000e+00 0.0000000000000000e+00  0.0000000000000000e+00 0.0000000000000000e+00 0.0000000000000000e+00  0.0000000000000000e+00 0.0000000000000000e+00 0.0000000000000000e+00  0.0000000000000000e+00 0.0000000000000000e+00 0.0000000000000000e+00  0.0000000000000000e+00 0.0000000000000000e+00 0.0000000000000000e+00  0.0000000000000000e+00 0.0000000000000000e+00 0.0000000000000000e+00  0.0000000000000000e+00 0.0000000000000000e+00 0.0000000000000000e+00  0.0000000000000000e+00 0.0000000000000000e+00 0.0000000000000000e+00  0.0000000000000000e+00 0.0000000000000000e+00 0.0000000000000000e+00  0.0000000000000000e+00 0.0000000000000000e+00 0.0000000000000000e+00  0.0000000000000000e+00 0.0000000000000000e+00 0.0000000000000000e+00  0.0000000000000000e+00 0.0000000000000000e+00 0.0000000000000000e+00  0.0000000000000000e+00 0.0000000000000000e+00 0.0000000000000000e+00  0.0000000000000000e+00 0.0000000000000000e+00 0.0000000000000000e+00  0.0000000000000000e+00 0.0000000000000000e+00 0.0000000000000000e+00  0.0000000000000000e+00 0.0000000000000000e+00 0.0000000000000000e+00  0.0000000000000000e+00 0.0000000000000000e+00 0.0000000000000000e+00  0.0000000000000000e+00 0.0000000000000000e+00 0.0000000000000000e+00  0.0000000000000000e+00 0.0000000000000000e+00 0.0000000000000000e+00  0.0000000000000000e+00 0.0000000000000000e+00 0.0000000000000000e+00  0.0000000000000000e+00 0.0000000000000000e+00 0.0000000000000000e+00  0.0000000000000000e+00 0.0000000000000000e+00 0.0000000000000000e+00  0.0000000000000000e+00 0.0000000000000000e+00 0.0000000000000000e+00  0.0000000000000000e+00 0.0000000000000000e+00 0.0000000000000000e+00  0.0000000000000000e+00 0.0000000000000000e+00 0.0000000000000000e+00  0.0000000000000000e+00 0.0000000000000000e+00 0.0000000000000000e+00  0.0000000000000000e+00 0.0000000000000000e+00 0.0000000000000000e+00  0.0000000000000000e+00 0.0000000000000000e+00 0.0000000000000000e+00  0.0000000000000000e+00 0.0000000000000000e+00 0.0000000000000000e+00  0.0000000000000000e+00 0.0000000000000000e+00 0.0000000000000000e+00  0.0000000000000000e+00 0.0000000000000000e+00 0.0000000000000000e+00  0.0000000000000000e+00 0.0000000000000000e+00 0.0000000000000000e+00  0.0000000000000000e+00 0.0000000000000000e+00 0.0000000000000000e+00  0.0000000000000000e+00 0.0000000000000000e+00 0.0000000000000000e+00  0.0000000000000000e+00 0.0000000000000000e+00 0.0000000000000000e+00  0.0000000000000000e+00 0.0000000000000000e+00 0.0000000000000000e+00  0.0000000000000000e+00 0.0000000000000000e+00 0.0000000000000000e+00  0.0000000000000000e+00 0.0000000000000000e+00 0.0000000000000000e+00  0.0000000000000000e+00 0.0000000000000000e+00 0.0000000000000000e+00  0.0000000000000000e+00 0.0000000000000000e+00 0.0000000000000000e+00  0.0000000000000000e+00 0.0000000000000000e+00 0.0000000000000000e+00  0.0000000000000000e+00 0.0000000000000000e+00 0.0000000000000000e+00  0.0000000000000000e+00 0.0000000000000000e+00 0.0000000000000000e+00  0.0000000000000000e+00 0.0000000000000000e+00 0.0000000000000000e+00  0.0000000000000000e+00 0.0000000000000000e+00 0.0000000000000000e+00  0.0000000000000000e+00 0.0000000000000000e+00 0.0000000000000000e+00  0.0000000000000000e+00 0.0000000000000000e+00 0.0000000000000000e+00  0.0000000000000000e+00 0.0000000000000000e+00 0.0000000000000000e+00  0.0000000000000000e+00 0.0000000000000000e+00 0.0000000000000000e+00  0.0000000000000000e+00 0.0000000000000000e+00 0.0000000000000000e+00  0.0000000000000000e+00 0.0000000000000000e+00 0.0000000000000000e+00  1.0803822014704274e+00 2.5115978715669379e-03 0.0000000000000000e+00  1.2561820668053261e+00 2.0359730145638230e-02 0.0000000000000000e+00  1.2934364933940314e+00 8.2270652492362813e-03 0.0000000000000000e+00  1.0961045615295204e+00 -1.0694917123209068e-03 0.0000000000000000e+00  0.0000000000000000e+00 0.0000000000000000e+00 0.0000000000000000e+00  0.0000000000000000e+00 0.0000000000000000e+00 0.0000000000000000e+00  0.0000000000000000e+00 0.0000000000000000e+00 0.0000000000000000e+00  0.0000000000000000e+00 0.0000000000000000e+00 0.0000000000000000e+00  0.0000000000000000e+00 0.0000000000000000e+00 0.0000000000000000e+00  0.0000000000000000e+00 0.0000000000000000e+00 0.0000000000000000e+00  0.0000000000000000e+00 0.0000000000000000e+00 0.0000000000000000e+00  0.0000000000000000e+00 0.0000000000000000e+00 0.0000000000000000e+00  0.0000000000000000e+00 0.0000000000000000e+00 0.0000000000000000e+00  0.0000000000000000e+00 0.0000000000000000e+00 0.0000000000000000e+00  0.0000000000000000e+00 0.0000000000000000e+00 0.0000000000000000e+00  0.0000000000000000e+00 0.0000000000000000e+00 0.0000000000000000e+00  0.0000000000000000e+00 0.0000000000000000e+00 0.0000000000000000e+00  0.0000000000000000e+00 0.0000000000000000e+00 0.0000000000000000e+00  0.0000000000000000e+00 0.0000000000000000e+00 0.0000000000000000e+00  0.0000000000000000e+00 0.0000000000000000e+00 0.0000000000000000e+00  0.0000000000000000e+00 0.0000000000000000e+00 0.0000000000000000e+00  0.0000000000000000e+00 0.0000000000000000e+00 0.0000000000000000e+00  0.0000000000000000e+00 0.0000000000000000e+00 0.0000000000000000e+00  0.0000000000000000e+00 0.0000000000000000e+00 0.0000000000000000e+00  0.0000000000000000e+00 0.0000000000000000e+00 0.0000000000000000e+00  9.6000004569413155e-01 0.0000000000000000e+00 0.0000000000000000e+00  1.4400000685425194e+00 0.0000000000000000e+00 0.0000000000000000e+00  1.4400000685450980e+00 0.0000000000000000e+00 0.0000000000000000e+00  9.6000004569777087e-01 0.0000000000000000e+00 0.0000000000000000e+00  4.4167830437358152e-01 2.8288606933154914e-01 0.0000000000000000e+00  6.5533577749582461e-01 3.1146962175729653e-01 0.0000000000000000e+00  7.8245107996051957e-02 1.6640035718303756e-01 0.0000000000000000e+00  1.8391522486041967e+00 1.7912968917502398e-02 0.0000000000000000e+00  1.9160299389548761e+00 1.0509089074026520e-01 0.0000000000000000e+00  1.4414144273017022e+00 2.1466660716540908e-01 0.0000000000000000e+00  1.3025396877126030e+00 3.4169131537785558e-01 0.0000000000000000e+00  1.3270320673824429e+00 2.4165170455669271e-01 0.0000000000000000e+00  1.3079077480316585e+00 -9.3607961053768687e-02 0.0000000000000000e+00  1.2731357844714344e+00 -3.3876944099681949e-01 0.0000000000000000e+00  1.4272003711806809e+00 -3.7403141553949154e-01 0.0000000000000000e+00  -2.1907294804764027e-01 -1.0581473521915732e-01 0.0000000000000000e+00  1.2541882758785672e+00 -6.7836349758283385e-02 0.0000000000000000e+00  1.3033524866391971e-01 -1.5333168557919169e-01 0.0000000000000000e+00  -1.3178730726338966e-01 -6.1552968450238645e-03 0.0000000000000000e+00  1.0966910658782023e+00 7.6119666630941274e-02 0.0000000000000000e+00  2.2286965586877527e-01 4.6086899640267881e-03 0.0000000000000000e+00  1.9054878569142391e+00 -1.9851624667383980e-01 0.0000000000000000e+00  1.3630251319260429e+00 -1.1384293491248925e-02 0.0000000000000000e+00  1.6679391575167375e+00 5.5893997032657107e-02 0.0000000000000000e+00  1.5591504003831578e+00 -5.2043751205531097e-01 0.0000000000000000e+00  1.6998923028991475e+00 2.0310698552847262e-01 0.0000000000000000e+00  1.7961932106156095e+00 6.6715787730799314e-01 0.0000000000000000e+00  1.0355713288403838e+00 -5.3961060399527354e-02 0.0000000000000000e+00  1.9787739905806443e+00 4.3958113616517530e-01 0.0000000000000000e+00  1.8450886496450085e+00 6.3715262595739963e-01 0.0000000000000000e+00  1.4771436858321494e+00 7.5767044828050645e-01 0.0000000000000000e+00  1.1373677397427346e+00 5.3648039670440950e-01 0.0000000000000000e+00  9.3816641736536488e-01 7.6296590047903332e-02 0.0000000000000000e+00  9.9262265143013617e-01 -4.2701929863859894e-01 0.0000000000000000e+00  1.3086897584554524e+00 -7.2217841746512723e-01 0.0000000000000000e+00  1.6773653673575104e+00 -7.2772570971139161e-01 0.0000000000000000e+00  1.9415863363469192e+00 -5.1768557208963562e-01 0.0000000000000000e+00  1.3107686179191471e+00 1.2383018908034453e-01 0.0000000000000000e+00  1.0517273444999189e+00 2.1904660682896382e-01 0.0000000000000000e+00  1.2848224200293643e+00 1.2063258661189356e-01 0.0000000000000000e+00  -1.2517760409696119e-01 -1.5659979238232968e-01 0.0000000000000000e+00  1.4256645968014463e+00 -7.3209225993588123e-03 0.0000000000000000e+00  1.4345533579744840e+00 -4.3857093334952696e-01 0.0000000000000000e+00  1.8610985944859397e+00 -8.7971611312010548e-02 0.0000000000000000e+00  1.2722310231726650e+00 1.0478471096679766e-02 0.0000000000000000e+00  1.2610698418234556e+00 -6.6237843012371895e-03 0.0000000000000000e+00  -9.2301039614640090e-02 -1.6710232641182099e-02 0.0000000000000000e+00  1.0614921850947130e+00 3.7105461829764441e-01 0.0000000000000000e+00  1.4224862165273093e+00 -4.0799430566053181e-02 0.0000000000000000e+00  1.0951757802137860e+00 -8.4207445749834062e-02 0.0000000000000000e+00  1.5433808733736634e+00 1.1161466331023571e-01 0.0000000000000000e+00  1.2473053087063404e+00 -4.3443128933554037e-02 0.0000000000000000e+00  1.1702050095770820e+00 -2.5743342251036888e-02 0.0000000000000000e+00  -7.0193902620257792e-02 -2.1266350293587707e-01 0.0000000000000000e+00  1.4331443845388387e+00 -1.0248849365999037e-02 0.0000000000000000e+00  9.5487021132707828e-01 -6.1684830983278906e-02 0.0000000000000000e+00  1.0739803895476852e+00 1.6073028502432338e-01 0.0000000000000000e+00  4.4119419360044576e-01 -6.1181347714097067e-01 0.0000000000000000e+00  1.7243678866411656e+00 8.4619450002455732e-01 0.0000000000000000e+00  1.2186985686065854e+00 9.2159007154389072e-01 0.0000000000000000e+00  7.5252806323889765e-01 4.8244222944750842e-01 0.0000000000000000e+00  6.4893377417846632e-01 -2.2900512879098361e-01 0.0000000000000000e+00  1.9914215194248828e+00 5.9314533904976963e-01 0.0000000000000000e+00  1.9845296221628805e+00 -2.7964343761974897e-01 0.0000000000000000e+00  1.4602278133188431e+00 2.0772837482448100e-01 0.0000000000000000e+00  9.8053413946637136e-01 -8.2859356498829939e-01 0.0000000000000000e+00  1.7561626841475086e+00 -4.7929685880416051e-01 0.0000000000000000e+00  1.1258204669228886e+00 -1.3003574481919922e-01 0.0000000000000000e+00  1.2878750535383270e+00 4.6338790270568147e-03 0.0000000000000000e+00  1.1843561403414999e+00 7.6688651989506321e-02 0.0000000000000000e+00  2.5411096624750351e-01 2.7681623503168953e-02 0.0000000000000000e+00  -6.1584391348881599e-02 2.1091847529536512e-02 0.0000000000000000e+00  -5.4239845676048407e-02 -1.0068498716189188e-01 0.0000000000000000e+00  1.8462376218367611e+00 -3.7985452658888647e-01 0.0000000000000000e+00  1.7005096872433938e+00 2.0893918427728367e-01 0.0000000000000000e+00  2.7354682444225994e-02 -1.1905189947575355e-01 0.0000000000000000e+00  1.5404317130682550e+00 -1.0641865811597029e+00 0.0000000000000000e+00  1.0299850742093455e+00 1.7585513854975149e-01 0.0000000000000000e+00  3.2588323452867074e-01 -1.7034039869022931e-02 0.0000000000000000e+00  1.9387067167428360e+00 3.0269031549384379e-01 0.0000000000000000e+00  6.6561991982863866e-01 -1.6718411749064080e-01 0.0000000000000000e+00  1.2192492646849866e+00 5.8589561429015944e-03 0.0000000000000000e+00  1.1407719576969555e+00 -6.0362099545908300e-02 0.0000000000000000e+00  1.1549930446638834e+00 -3.5566415391254963e-02 0.0000000000000000e+00  4.9348502910743169e-01 -2.8323068822504630e-02 0.0000000000000000e+00  1.7817287797567198e+00 -3.3619704335549921e-01 0.0000000000000000e+00  -6.4976316989230731e-02 -1.8491698918994204e-01 0.0000000000000000e+00  1.4901698307707012e+00 1.0966205859858991e+00 0.0000000000000000e+00  -5.0768510597106728e-02 -1.7393644422602073e-01 0.0000000000000000e+00  1.8581420593577767e+00 7.6167385550222799e-01 0.0000000000000000e+00  8.2804867652651193e-01 8.9453499872950482e-01 0.0000000000000000e+00  4.2721090472693585e-01 1.6476971540541599e-01 0.0000000000000000e+00  8.8685592969557003e-01 6.9309395095961651e-02 0.0000000000000000e+00  1.2580175503581941e+00 2.9589465322492715e-02 0.0000000000000000e+00  1.2760521111458041e+00 2.2915521315926382e-01 0.0000000000000000e+00  1.3607761546988670e+00 2.4466880825428877e-01 0.0000000000000000e+00  -5.0176473583370150e-02 4.2533023581348209e-02 0.0000000000000000e+00  6.0520746567323025e-01 -6.6358296878387668e-01 0.0000000000000000e+00  8.8178797588357793e-01 3.3197292873654180e-02 0.0000000000000000e+00  1.9827136246984238e+00 -8.0637789081687772e-01 0.0000000000000000e+00  1.1716879161249210e+00 -1.4367475540797764e-02 0.0000000000000000e+00  2.8608819842349925e-01 2.4228117133640426e-02 0.0000000000000000e+00  -3.9494028828815786e-01 5.2422939792098899e-01 0.0000000000000000e+00  1.1116384783744002e+00 9.1416126068409029e-02 0.0000000000000000e+00  1.1865558558703986e+00 -1.1158690898073949e+00 0.0000000000000000e+00  1.3219291647090146e+00 -1.4709235845146140e-01 0.0000000000000000e+00  8.8687693141473423e-01 -1.1809333534482262e-01 0.0000000000000000e+00  1.0725773684507223e+00 7.7306375993679080e-02 0.0000000000000000e+00  7.7780573097514771e-01 -5.5041638874826035e-02 0.0000000000000000e+00  1.7038264521509229e-02 -6.1011991136468983e-02 0.0000000000000000e+00  1.3846073750770449e+00 7.9474768090653944e-02 0.0000000000000000e+00  1.8524209139694052e+00 -5.1770081105177401e-01 0.0000000000000000e+00  8.9343219258112772e-01 3.2079408555952219e-02 0.0000000000000000e+00  1.8078132304644445e+00 -1.0167179920835034e+00 0.0000000000000000e+00  1.0591742684976386e+00 2.6754462073589329e-02 0.0000000000000000e+00  1.8614288368719896e+00 1.6510672438267657e-01 0.0000000000000000e+00  1.0787397873599269e+00 5.0250264072125717e-01 0.0000000000000000e+00  1.4129543264366617e+00 7.2665448690719295e-02 0.0000000000000000e+00  1.0157319164111553e+00 1.5935796575768310e-01 0.0000000000000000e+00  -1.7495356883464111e-01 -6.5665346500558261e-02 0.0000000000000000e+00  1.1002899939003916e+00 -6.0143438299440390e-03 0.0000000000000000e+00  1.3526719207719560e+00 4.1963386647156198e-01 0.0000000000000000e+00  1.3234445360427438e+00 -4.8467568609339040e-02 0.0000000000000000e+00  1.2681025359229234e+00 1.4294025387748602e-01 0.0000000000000000e+00  1.4008809444652264e+00 1.1092767158588035e-01 0.0000000000000000e+00  1.3021111521592021e+00 1.0601815056875666e-01 0.0000000000000000e+00  1.5913290307851573e+00 -1.0789795052883498e-01 0.0000000000000000e+00  1.1533207559028593e+00 -1.3996576531660932e-02 0.0000000000000000e+00  1.8055240796611398e+00 2.7165556256189705e-02 0.0000000000000000e+00  -2.7689939274176175e-02 -3.2438411763716542e-02 0.0000000000000000e+00  1.3206425492297467e+00 -5.0319767896672973e-02 0.0000000000000000e+00  1.5607289694842570e+00 4.0104253555471625e-01 0.0000000000000000e+00  1.7541646534200359e+00 -3.2176916918978243e-01 0.0000000000000000e+00  1.4183916665270835e+00 1.3098612692345957e-01 0.0000000000000000e+00  1.0034932481102294e+00 -7.7756330216029431e-03 0.0000000000000000e+00  1.4648330673591377e+00 -4.9091165909557651e-02 0.0000000000000000e+00  1.4554087057997820e+00 -2.3812395785106297e-01 0.0000000000000000e+00  1.6286258567220691e+00 2.3594997297526257e-02 0.0000000000000000e+00  -6.2416473645657097e-02 1.1286290723752002e-02 0.0000000000000000e+00  1.2770428575318260e+00 -3.3985897925850744e-01 0.0000000000000000e+00  1.4212999458680877e+00 7.6909198113122368e-01 0.0000000000000000e+00  1.4255711415297503e+00 -1.1308757826726603e-02 0.0000000000000000e+00  9.3667531700262574e-01 -4.9640542965270817e-02 0.0000000000000000e+00  8.3832781878002371e-01 -7.6964941215605306e-02 0.0000000000000000e+00  8.4068338404906562e-01 2.0860922191935242e-02 0.0000000000000000e+00  1.3843901375897036e+00 -2.0180293507700123e-01 0.0000000000000000e+00  1.8700238607859372e+00 2.2244495241305468e-01 0.0000000000000000e+00  8.3812772946188141e-01 1.3360511561058705e-01 0.0000000000000000e+00  1.0708052717849392e+00 -2.4343353618140040e-01 0.0000000000000000e+00  9.6417175029591284e-01 -1.5356208519563280e-01 0.0000000000000000e+00  -3.6450267094476435e-01 1.1386408471108447e-01 0.0000000000000000e+00  -2.2469418285473650e-01 1.6950027836663079e-02 0.0000000000000000e+00  1.0046220410764384e+00 -1.8895685546538751e-05 0.0000000000000000e+00  9.5997886115497599e-01 2.0960428154943255e-03 0.0000000000000000e+00  -3.6028829244737048e-02 1.5106077936848739e-01 0.0000000000000000e+00  1.6765989419301823e+00 -3.6379997009256372e-03 0.0000000000000000e+00  1.4496945865018118e+00 -8.4171207427652328e-01 0.0000000000000000e+00  8.4450128502049349e-01 3.9828972453888896e-02 0.0000000000000000e+00  1.2560424285409368e+00 6.6288270844749864e-02 0.0000000000000000e+00  8.8162168837308685e-01 -3.1513930417100076e-04 0.0000000000000000e+00  2.0722340281859966e-01 -9.6543725449357562e-02 0.0000000000000000e+00  1.3164710216308351e+00 -1.4390925889658560e-01 0.0000000000000000e+00  8.4112734048647886e-01 -4.3322129986397555e-02 0.0000000000000000e+00  1.0742826088652806e+00 1.1100532417570330e+00 0.0000000000000000e+00  1.6386635005243277e+00 9.4468938913643641e-01 0.0000000000000000e+00  4.4176918066837800e-01 6.1754614645015693e-01 0.0000000000000000e+00  3.0868145192941454e-01 -2.8593162801323213e-01 0.0000000000000000e+00  7.0603942068839232e-01 1.1103679241082170e-02 0.0000000000000000e+00  -2.6404301138142291e-02 4.2154253818262863e-02 0.0000000000000000e+00  1.3811250458672197e+00 3.6376699314676636e-01 0.0000000000000000e+00  -6.6211705496829837e-02 -1.0719182177388942e-01 0.0000000000000000e+00  -5.4020590099396124e-02 -1.8074982104512158e-01 0.0000000000000000e+00  1.2721114362085078e+00 6.9201423776681197e-03 0.0000000000000000e+00  1.2513418185174430e+00 1.0195624474677097e-02 0.0000000000000000e+00  7.6167223718066213e-01 -1.0213492425274393e+00 0.0000000000000000e+00  8.0548878835048654e-01 -8.8795417615382816e-02 0.0000000000000000e+00  6.0910728610181342e-01 4.8593348284291668e-02 0.0000000000000000e+00  7.1827527028558247e-01 4.6220162858945098e-02 0.0000000000000000e+00  6.7435064428769775e-01 2.6958566971205838e-02 0.0000000000000000e+00  1.3979555947145059e+00 -4.8107402274645683e-01 0.0000000000000000e+00  1.0628467652489497e+00 -6.0137052192929930e-01 0.0000000000000000e+00  4.4637305226869806e-01 2.5485501613971506e-02 0.0000000000000000e+00  7.6814300094771626e-01 -1.2375464488481888e-02 0.0000000000000000e+00  -7.1995875569426243e-02 -1.8221368811566407e-01 0.0000000000000000e+00  9.3567436162307793e-01 -1.1680990389259422e-02 0.0000000000000000e+00  1.2608222417296893e+00 9.2246412156271274e-02 0.0000000000000000e+00  7.0273613267999080e-01 -3.0171575801262562e-02 0.0000000000000000e+00  1.7526140642553187e+00 1.2681336732653745e-01 0.0000000000000000e+00  1.4591205825132807e+00 -2.4047474652324836e-02 0.0000000000000000e+00  1.5570482561622128e+00 5.7202510722345534e-01 0.0000000000000000e+00  1.1759359251513797e+00 9.4383400269732659e-02 0.0000000000000000e+00  1.5050459809500636e+00 5.7604546765171238e-02 0.0000000000000000e+00  1.4122900169692068e+00 1.2854725769216541e-01 0.0000000000000000e+00  1.5802509376044529e+00 3.8902646698673368e-02 0.0000000000000000e+00  1.3901209964181516e+00 6.5686394890197650e-03 0.0000000000000000e+00  1.2009347030014537e+00 -5.2881407380196831e-02 0.0000000000000000e+00  9.8539317076389998e-01 -1.2561378451983737e-02 0.0000000000000000e+00  1.5354415976963989e+00 3.1682293064556671e-01 0.0000000000000000e+00  1.4773147122607775e+00 1.9768168362413963e-01 0.0000000000000000e+00  1.2913170111563721e+00 1.7186603979711257e-01 0.0000000000000000e+00  1.8053890106587001e+00 2.1881933453