<?xml version="1.0"?>
<VTKFile type="UnstructuredGrid"  version="0.1"  >
<UnstructuredGrid>
<Piece  NumberOfPoints="3852" NumberOfCells="7360">
<Points>
<DataArray  type="Float64"  NumberOfComponents="3"  format="ascii">0 0 0  0 0.41 0  2.2 0.41 0  2.2 0 0  0.2 0.15 0  0.15 0.2 0  0.2 0.25 0  0.25 0.2 0  0.2097545161007899 0.1509607359798352 0  0.219134171618224 0.153806023374423 0  0.2277785116509268 0.1584265193848371 0  0.2353553390592504 0.1646446609405956 0  0.2415734806150793 0.1722214883489481 0  0.2461939766255306 0.1808658283816641 0  0.249039264020151 0.1902454838991403 0  0.2490392640201666 0.2097545161007811 0  0.2461939766255869 0.2191341716182 0  0.2415734806151802 0.2277785116509009 0  0.2353553390594108 0.235355339059244 0  0.2277785116510524 0.2415734806150789 0  0.2191341716182962 0.2461939766255471 0  0.209754516100834 0.2490392640201561 0  0.1902454838992189 0.2490392640201666 0  0.1808658283818 0.2461939766255869 0  0.1722214883490991 0.2415734806151802 0  0.164644660940756 0.2353553390594108 0  0.1584265193849211 0.2277785116510524 0  0.1538060233744529 0.2191341716182962 0  0.150960735979844 0.209754516100834 0  0.1509607359798352 0.1902454838992101 0  0.153806023374423 0.180865828381776 0  0.1584265193848371 0.1722214883490732 0  0.1646446609405956 0.1646446609407496 0  0.1722214883489481 0.1584265193849207 0  0.1808658283816641 0.1538060233744694 0  0.1902454838991403 0.150960735979849 0  0.09999999999980318 0 0  0.1999999999996354 0 0  0.2999999999994593 0 0  0.3999999999991452 0 0  0.4999999999988309 0 0  0.599999999998495 0 0  0.6999999999982023 0 0  0.7999999999979096 0 0  0.8999999999975735 0 0  0.9999999999972848 0 0  1.099999999997053 0 0  1.199999999997309 0 0  1.299999999997566 0 0  1.399999999997821 0 0  1.49999999999809 0 0  1.599999999998377 0 0  1.69999999999859 0 0  1.799999999998877 0 0  1.899999999999145 0 0  1.999999999999386 0 0  2.099999999999693 0 0  2.2 0.08199999999981657 0  2.2 0.1639999999995688 0  2.2 0.2459999999995603 0  2.2 0.327999999999785 0  2.100000000000048 0.41 0  2.000000000000269 0.41 0  1.900000000000422 0.41 0  1.800000000000679 0.41 0  1.700000000000931 0.41 0  1.600000000001326 0.41 0  1.500000000001665 0.41 0  1.400000000002032 0.41 0  1.300000000002395 0.41 0  1.200000000002644 0.41 0  1.100000000002865 0.41 0  1.000000000002617 0.41 0  0.900000000002368 0.41 0  0.8000000000021192 0.41 0  0.7000000000018587 0.41 0  0.6000000000015786 0.41 0  0.5000000000013736 0.41 0  0.4000000000010933 0.41 0  0.3000000000008329 0.41 0  0.2000000000005997 0.41 0  0.1000000000003003 0.41 0  0 0.3280000000001975 0  0 0.2460000000004372 0  0 0.1640000000004437 0  0 0.08200000000021695 0  0.439039350479032 0.2235433210862024 0  0.3557293424662716 0.1539377961885917 0  0.3450132387946972 0.2399891502764809 0  0.2900756359792848 0.08507884665974728 0  0.2884413411145515 0.3059878288466324 0  0.2102195502178943 0.3385267178242456 0  0.137328909169326 0.3152847369018352 0  0.08490385663776813 0.2628976192695439 0  0.08063302347471875 0.188368977740952 0  0.1005937615311739 0.1162460982751979 0  0.1621860847198582 0.08598327887900903 0  0.3012864586130264 0.1926027915888804 0  1.999140000000448 0.2049999999995642 0  0.2742354912953259 0.1572259708446958 0  0.2871471664627305 0.2264358039321654 0  0.6542851578645765 0.1981889790488746 0  0.2651366296338276 0.2534562504463119 0  0.2371819217149928 0.0977949043027586 0  1.651678197071202 0.2145186615851206 0  1.349674714201118 0.2086119645070391 0  0.9627539291831038 0.2056711800839285 0  0.2360880502985623 0.2733043913425156 0  1.159884231859056 0.2050429640239795 0  0.2502927927237266 0.1358797630898622 0  0.2080582834123368 0.2835355213895352 0  0.1805439632603489 0.278338480667804 0  0.1486243506827335 0.2626014098227327 0  0.1266658889266303 0.2392753516137401 0  0.1179814841582247 0.2069380844236527 0  0.1225167704961566 0.1764957192948648 0  0.1357996569043286 0.1472158045151807 0  0.1619764829264572 0.126298308975886 0  0.1935640279204225 0.116654032325456 0  1.82457000000085 0.2346439024393236 0  0.8027657238591595 0.149277802568535 0  1.498563450727992 0.2632867809910664 0  0.2770405925201826 0.1924926016722167 0  0.470924801584011 0.09138612536042019 0  0.550693598792917 0.2898604497866635 0  0.381089831438127 0.3238078833671811 0  2.074516462495042 0.125705772324225 0  2.083599037046577 0.2769549245607841 0  0.2692296340100125 0.2210592970306522 0  0.7614733075682367 0.2839235561638241 0  1.536698221979284 0.1258192462655419 0  1.231809489345021 0.1282542717942667 0  1.054759157670174 0.1242749934189342 0  1.754535566851005 0.1223197024158991 0  1.90452621597739 0.1324728094649104 0  0.2672409321155211 0.178737994598723 0  1.254401531996246 0.2902808614622134 0  1.04350934597445 0.2986664252663559 0  0.0749710792305778 0.3208721925318313 0  0.5425289614095572 0.165152457827861 0  0.1663208394680799 0.2644065126118989 0  0.1471335176887868 0.2433864007787126 0  0.1345556779484054 0.219852318055334 0  0.131940483167677 0.1932967226753857 0  0.1941574795820069 0.2685534232066453 0  0.2226696214021025 0.1252682734732412 0  0.2193882214552426 0.2661718674478616 0  0.1396865053227576 0.1677617654469802 0  0.8749487631478475 0.295170577255529 0  1.424301820545763 0.1157348858866879 0  1.918515045506933 0.2902236143624367 0  1.744876807925144 0.306628844405037 0  0.2443979144126529 0.254353837216211 0  0.2569054246570621 0.2306780201523878 0  0.2632507216716993 0.2062296523407826 0  0.4609453431326088 0.3138128990490959 0  0.3578015395476809 0.08253318517696946 0  0.2529777826635333 0.155582948480283 0  0.1580369715200277 0.1487041474358234 0  0.652872088668587 0.3101079993636056 0  0.297147332491062 0.2558065812325378 0  0.6188247313471635 0.1101603945467571 0  0.8951149554961688 0.1123812542864208 0  1.592749166085722 0.2985190085719691 0  1.40420309431358 0.2992155383468256 0  1.649189110727275 0.1000387439201274 0  0.2301663900864273 0.1432830242131801 0  0.2064839406544439 0.1345771465164309 0  0.2548204572493643 0.1702022465417566 0  0.1606700828011604 0.2481621709908606 0  0.2605987457303776 0.1928909671966518 0  0.1826942838524941 0.2594610608897559 0  0.1456438338561037 0.2290651013631561 0  0.1387681034994896 0.2058679665896095 0  1.140902260384949 0.3081952438204152 0  2.123402621966431 0.2039515281261525 0  0.7272188829630218 0.1047469619375249 0  0.2060868819369127 0.2616331638469837 0  0.246763614216289 0.2411610007697902 0  0.1405961691450822 0.1819800466423126 0  1.149638048863541 0.08264492713269313 0  0.1809997740285721 0.1365020267363126 0  1.993198408221569 0.09755938404998035 0  0.2287111352430851 0.2547015941619741 0  0.3818716699056283 0.2060398770290832 0  0.39147508084147 0.2656155699545688 0  0.151201080877373 0.1608659990301362 0  0.0542521118046473 0.1382221876243976 0  0.06190301158313444 0.0685934933767465 0  1.317316039400266 0.1015983144534349 0  0.2176417279723976 0.1415790407114221 0  0.2401571300978209 0.1529210337009423 0  0.2618092962776011 0.3566662607419938 0  0.1941527094396574 0.1377969918002053 0  0.9590486261329707 0.3255353063371385 0  0.1708201090411339 0.1447474051814825 0  1.837592370686806 0.3302992722413595 0  0.3197015570210796 0.1212159119695666 0  0.4155281956943757 0.1409543952531078 0  0.0549491513262805 0.2307535706287103 0  0.1668210562270142 0.3605647861782867 0  0.2854688902460447 0.2093700809023571 0  2.013251581901814 0.3292746985146142 0  0.1192191106244758 0.2809901915857802 0  0.2487958366614321 0.04556523514103697 0  0.09061021186838321 0.2240174335271237 0  1.737143840576958 0.20912817770623 0  0.04515017012776967 0.2784708690411318 0  0.5347554646753627 0.08988970780599832 0  0.977104673723579 0.08241628541188413 0  0.336509991617897 0.2888965225844298 0  0.2569238041969055 0.2173711314485607 0  1.906541186051535 0.2125389476829634 0  0.1762338839607841 0.3102437166134606 0  1.449268841077636 0.201011295143529 0  0.8555371485878378 0.2099663446585434 0  1.837208236203613 0.07556229833764837 0  1.264402545318887 0.1992523923163096 0  1.068181074047183 0.2155119107017876 0  0.3158931250274742 0.3421721218291775 0  0.2731958384900449 0.2373435058667565 0  0.09875906484220501 0.1533097574901186 0  0.7355755433976705 0.2066339904079041 0  1.567440499207928 0.2049999999995983 0  1.329829828222916 0.3295825481537897 0  0.8214190147401245 0.07894167681990104 0  1.525459989258997 0.3394220200696043 0  0.1990897327079506 0.06300531675246424 0  0.244701762210989 0.3062404318132603 0  0.1033853772622983 0.3551443431224104 0  0.1178236825374896 0.07148041782551597 0  0.1558198999929474 0.04409380269139784 0  0.3389178979413869 0.198678920661321 0  0.310790717645908 0.2196004930752872 0  2.125022007676643 0.3402049371791425 0  2.130028889485561 0.06535501282233655 0  0.4821161335597635 0.1626909543876269 0  0.2838678108956019 0.1254276466262967 0  0.5062815929260498 0.2376271077316994 0  1.663059277092996 0.3422301118688678 0  1.82292665764828 0.1574809263836269 0  2.052538557905295 0.05717536030732174 0  0.3078251537889645 0.16056368457456 0  0.8108267070172145 0.3390047366820738 0  1.487254632568403 0.0703866281621833 0  0.155004430757041 0.2369517702015699 0  0.1725545045705267 0.2519594403466565 0  0.1445581653510352 0.2167994984574706 0  0.1420710285613199 0.1942747855116325 0  1.461861739291679 0.3471998553985149 0  0.2372128969196007 0.2453440460936858 0  0.1943665918892754 0.2580518465884657 0  0.2452139232912363 0.1629124725160763 0  0.2555786751481889 0.1825885041235872 0  2.14640473333793 0.2790222779730848 0  2.145589594789407 0.1282024626544199 0  0.1486651579751984 0.1726583296292201 0  0.550000000001476 0.3603327897285098 0  0.0505668771231032 0.3660023622363767 0  1.049999999997169 0.05217028468202135 0  1.244771793631775 0.05744029386223062 0  0.1356759337238615 0.1094447816941579 0  0.5872326411628903 0.2223148728195226 0  0.2168458206248643 0.2558159203714847 0  1.749999999998732 0.05166028789524129 0  0.2855257256666041 0.1763246086558152 0  1.92
[...]
<PointData  Vectors="f_22"> 
<DataArray  type="Float64"  Name="f_22"  NumberOfComponents="3" format="ascii">0.0000000000000000e+00 0.0000000000000000e+00 0.0000000000000000e+00  0.0000000000000000e+00 0.0000000000000000e+00 0.0000000000000000e+00  0.0000000000000000e+00 0.0000000000000000e+00 0.0000000000000000e+00  0.0000000000000000e+00 0.0000000000000000e+00 0.0000000000000000e+00  0.0000000000000000e+00 0.0000000000000000e+00 0.0000000000000000e+00  0.0000000000000000e+00 0.0000000000000000e+00 0.0000000000000000e+00  0.0000000000000000e+00 0.0000000000000000e+00 0.0000000000000000e+00  0.0000000000000000e+00 0.0000000000000000e+00 0.0000000000000000e+00  0.0000000000000000e+00 0.0000000000000000e+00 0.0000000000000000e+00  0.0000000000000000e+00 0.0000000000000000e+00 0.0000000000000000e+00  0.0000000000000000e+00 0.0000000000000000e+00 0.0000000000000000e+00  0.0000000000000000e+00 0.0000000000000000e+00 0.0000000000000000e+00  0.0000000000000000e+00 0.0000000000000000e+00 0.0000000000000000e+00  0.0000000000000000e+00 0.0000000000000000e+00 0.0000000000000000e+00  0.0000000000000000e+00 0.0000000000000000e+00 0.0000000000000000e+00  0.0000000000000000e+00 0.0000000000000000e+00 0.0000000000000000e+00  0.0000000000000000e+00 0.0000000000000000e+00 0.0000000000000000e+00  0.0000000000000000e+00 0.0000000000000000e+00 0.0000000000000000e+00  0.0000000000000000e+00 0.0000000000000000e+00 0.0000000000000000e+00  0.0000000000000000e+00 0.0000000000000000e+00 0.0000000000000000e+00  0.0000000000000000e+00 0.0000000000000000e+00 0.0000000000000000e+00  0.0000000000000000e+00 0.0000000000000000e+00 0.0000000000000000e+00  0.0000000000000000e+00 0.0000000000000000e+00 0.0000000000000000e+00  0.0000000000000000e+00 0.0000000000000000e+00 0.0000000000000000e+00  0.0000000000000000e+00 0.0000000000000000e+00 0.0000000000000000e+00  0.0000000000000000e+00 0.0000000000000000e+00 0.0000000000000000e+00  0.0000000000000000e+00 0.0000000000000000e+00 0.0000000000000000e+00  0.0000000000000000e+00 0.0000000000000000e+00 0.0000000000000000e+00  0.0000000000000000e+00 0.0000000000000000e+00 0.0000000000000000e+00  0.0000000000000000e+00 0.0000000000000000e+00 0.0000000000000000e+00  0.0000000000000000e+00 0.0000000000000000e+00 0.0000000000000000e+00  0.0000000000000000e+00 0.0000000000000000e+00 0.0000000000000000e+00  0.0000000000000000e+00 0.0000000000000000e+00 0.0000000000000000e+00  0.0000000000000000e+00 0.0000000000000000e+00 0.0000000000000000e+00  0.0000000000000000e+00 0.0000000000000000e+00 0.0000000000000000e+00  0.0000000000000000e+00 0.0000000000000000e+00 0.0000000000000000e+00  0.0000000000000000e+00 0.0000000000000000e+00 0.0000000000000000e+00  0.0000000000000000e+00 0.0000000000000000e+00 0.0000000000000000e+00  0.0000000000000000e+00 0.0000000000000000e+00 0.0000000000000000e+00  0.0000000000000000e+00 0.0000000000000000e+00 0.0000000000000000e+00  0.0000000000000000e+00 0.0000000000000000e+00 0.0000000000000000e+00  0.0000000000000000e+00 0.0000000000000000e+00 0.0000000000000000e+00  0.0000000000000000e+00 0.0000000000000000e+00 0.0000000000000000e+00  0.0000000000000000e+00 0.0000000000000000e+00 0.0000000000000000e+00  0.0000000000000000e+00 0.0000000000000000e+00 0.0000000000000000e+00  0.0000000000000000e+00 0.0000000000000000e+00 0.0000000000000000e+00  0.0000000000000000e+00 0.0000000000000000e+00 0.0000000000000000e+00  0.0000000000000000e+00 0.0000000000000000e+00 0.0000000000000000e+00  0.0000000000000000e+00 0.0000000000000000e+00 0.0000000000000000e+00  0.0000000000000000e+00 0.0000000000000000e+00 0.0000000000000000e+00  0.0000000000000000e+00 0.0000000000000000e+00 0.0000000000000000e+00  0.0000000000000000e+00 0.0000000000000000e+00 0.0000000000000000e+00  0.0000000000000000e+00 0.0000000000000000e+00 0.0000000000000000e+00  0.0000000000000000e+00 0.0000000000000000e+00 0.0000000000000000e+00  0.0000000000000000e+00 0.0000000000000000e+00 0.0000000000000000e+00  0.0000000000000000e+00 0.0000000000000000e+00 0.0000000000000000e+00  0.0000000000000000e+00 0.0000000000000000e+00 0.0000000000000000e+00  1.0860177280630938e+00 -3.2541782732077008e-03 0.0000000000000000e+00  1.2511903225475691e+00 -5.7983804868686838e-02 0.0000000000000000e+00  1.2949744653476432e+00 -2.6643446750946143e-02 0.0000000000000000e+00  1.0960657440143380e+00 -5.8845690284566512e-03 0.0000000000000000e+00  0.0000000000000000e+00 0.0000000000000000e+00 0.0000000000000000e+00  0.0000000000000000e+00 0.0000000000000000e+00 0.0000000000000000e+00  0.0000000000000000e+00 0.0000000000000000e+00 0.0000000000000000e+00  0.0000000000000000e+00 0.0000000000000000e+00 0.0000000000000000e+00  0.0000000000000000e+00 0.0000000000000000e+00 0.0000000000000000e+00  0.0000000000000000e+00 0.0000000000000000e+00 0.0000000000000000e+00  0.0000000000000000e+00 0.0000000000000000e+00 0.0000000000000000e+00  0.0000000000000000e+00 0.0000000000000000e+00 0.0000000000000000e+00  0.0000000000000000e+00 0.0000000000000000e+00 0.0000000000000000e+00  0.0000000000000000e+00 0.0000000000000000e+00 0.0000000000000000e+00  0.0000000000000000e+00 0.0000000000000000e+00 0.0000000000000000e+00  0.0000000000000000e+00 0.0000000000000000e+00 0.0000000000000000e+00  0.0000000000000000e+00 0.0000000000000000e+00 0.0000000000000000e+00  0.0000000000000000e+00 0.0000000000000000e+00 0.0000000000000000e+00  0.0000000000000000e+00 0.0000000000000000e+00 0.0000000000000000e+00  0.0000000000000000e+00 0.0000000000000000e+00 0.0000000000000000e+00  0.0000000000000000e+00 0.0000000000000000e+00 0.0000000000000000e+00  0.0000000000000000e+00 0.0000000000000000e+00 0.0000000000000000e+00  0.0000000000000000e+00 0.0000000000000000e+00 0.0000000000000000e+00  0.0000000000000000e+00 0.0000000000000000e+00 0.0000000000000000e+00  0.0000000000000000e+00 0.0000000000000000e+00 0.0000000000000000e+00  9.6000004950995632e-01 0.0000000000000000e+00 0.0000000000000000e+00  1.4400000742662571e+00 0.0000000000000000e+00 0.0000000000000000e+00  1.4400000742688350e+00 0.0000000000000000e+00 0.0000000000000000e+00  9.6000004951359585e-01 0.0000000000000000e+00 0.0000000000000000e+00  -1.9637769284279979e-01 -4.4983943945309451e-01 0.0000000000000000e+00  4.3741990629385519e-01 -2.3851718766468216e-01 0.0000000000000000e+00  3.5488712456910815e-01 -3.1419083701470180e-01 0.0000000000000000e+00  1.8254688652683428e+00 -6.6482590276959380e-02 0.0000000000000000e+00  1.9394793416097529e+00 -2.8966420116153756e-02 0.0000000000000000e+00  1.4615019571121541e+00 1.8272466660341838e-01 0.0000000000000000e+00  1.3283152104133165e+00 3.5143454585502004e-01 0.0000000000000000e+00  1.3385597382659540e+00 2.7465416567704776e-01 0.0000000000000000e+00  1.3056834839419229e+00 -5.1370172864121919e-02 0.0000000000000000e+00  1.2565750496078132e+00 -3.0920215584714006e-01 0.0000000000000000e+00  1.3938129344374131e+00 -3.6860171362333449e-01 0.0000000000000000e+00  -2.5741611611687432e-01 -2.1289249343790301e-02 0.0000000000000000e+00  1.3030233372155722e+00 1.0518757167394013e-01 0.0000000000000000e+00  4.1602630859998422e-05 -2.5449960801097266e-02 0.0000000000000000e+00  -6.4824030765058674e-02 1.5398358748758945e-01 0.0000000000000000e+00  1.2232126812218327e+00 -5.7607391173501410e-01 0.0000000000000000e+00  4.0972737273850057e-01 7.8470193165746452e-02 0.0000000000000000e+00  1.8660950005453012e+00 -2.3606545225324324e-01 0.0000000000000000e+00  1.7143886236967014e+00 -2.7284543397712713e-01 0.0000000000000000e+00  1.7966894997686960e+00 4.0290707201934561e-01 0.0000000000000000e+00  1.4144216703777805e+00 3.4173969168802315e-01 0.0000000000000000e+00  1.8559408715010079e+00 1.6887879515002246e-01 0.0000000000000000e+00  1.4653729760570742e+00 -4.3539514915262095e-01 0.0000000000000000e+00  8.9065877713817743e-01 -4.5174431712827187e-02 0.0000000000000000e+00  2.0411840568520563e+00 4.0365531759288581e-01 0.0000000000000000e+00  1.9036468711180705e+00 6.3352678477620472e-01 0.0000000000000000e+00  1.5196086215111664e+00 7.8842354324520980e-01 0.0000000000000000e+00  1.1609475141293457e+00 5.8481964270930120e-01 0.0000000000000000e+00  9.4268796991218395e-01 1.3272274176739565e-01 0.0000000000000000e+00  9.7931598197615022e-01 -3.7261384877784370e-01 0.0000000000000000e+00  1.2788436733563722e+00 -6.8072476064724374e-01 0.0000000000000000e+00  1.6331259567252863e+00 -7.0824277981643746e-01 0.0000000000000000e+00  1.8903732960344686e+00 -5.2558547639715592e-01 0.0000000000000000e+00  1.3108669243394220e+00 -4.5233542169757703e-02 0.0000000000000000e+00  1.4836696880986231e+00 -2.4602227685245387e-01 0.0000000000000000e+00  1.5954158092373198e+00 -1.5332084163950546e-01 0.0000000000000000e+00  -1.4161101171440305e-01 4.6598266412048235e-02 0.0000000000000000e+00  1.6486698904886845e+00 4.6296226343303259e-01 0.0000000000000000e+00  1.6380428463320340e+00 1.2250687309881110e-01 0.0000000000000000e+00  1.5497724497689220e+00 -1.8160973966149138e-01 0.0000000000000000e+00  1.1702639067725578e+00 -9.8501165609766392e-03 0.0000000000000000e+00  1.3640364436404790e+00 -3.3719312652004223e-02 0.0000000000000000e+00  -8.2881465531153373e-02 1.9944950778279452e-01 0.0000000000000000e+00  1.0608011681732961e+00 -7.8802514289271056e-02 0.0000000000000000e+00  1.1826337734908854e+00 5.5121842359260043e-02 0.0000000000000000e+00  1.5248444982707445e+00 1.1855216359481280e-01 0.0000000000000000e+00  6.8565800933692955e-01 -2.1613236731321494e-02 0.0000000000000000e+00  1.3890045829984905e+00 -1.4028024275223637e-02 0.0000000000000000e+00  1.3193071683915552e+00 4.4679434468441540e-03 0.0000000000000000e+00  -8.1219184230322553e-02 -8.4012135101706898e-03 0.0000000000000000e+00  1.0002691561191452e+00 -1.6960186708083733e-01 0.0000000000000000e+00  1.5706674953602013e+00 -2.4164136838201411e-01 0.0000000000000000e+00  1.0825777966903958e+00 1.7749498933597468e-01 0.0000000000000000e+00  1.2396133094560764e+00 6.9845786644059005e-01 0.0000000000000000e+00  1.7813843198583756e+00 8.6588743434325832e-01 0.0000000000000000e+00  1.2580352879568739e+00 9.6853718092564045e-01 0.0000000000000000e+00  7.6994266388581001e-01 5.4270196016265604e-01 0.0000000000000000e+00  6.4382358765348802e-01 -1.6623249416224570e-01 0.0000000000000000e+00  2.0768109105308943e+00 5.8380486122140207e-01 0.0000000000000000e+00  1.9000673486220445e+00 -3.0080689045690567e-01 0.0000000000000000e+00  1.6128978175492694e+00 1.9099155212771460e-01 0.0000000000000000e+00  9.5420834300983326e-01 -7.7430965141297503e-01 0.0000000000000000e+00  7.5249800036873482e-01 3.1805429297244975e-01 0.0000000000000000e+00  1.1064555140318708e+00 2.9663527415170868e-02 0.0000000000000000e+00  1.1719945564376650e+00 9.2797868062045291e-02 0.0000000000000000e+00  1.1228705038584430e+00 4.9841507270511169e-02 0.0000000000000000e+00  3.4961856788810641e-01 4.3520074547884188e-02 0.0000000000000000e+00  -6.1553118366611238e-02 1.9927770583108648e-01 0.0000000000000000e+00  -6.8736582269490892e-02 1.6080297672612479e-01 0.0000000000000000e+00  1.4647708010527625e+00 3.0556105385982017e-02 0.0000000000000000e+00  1.8564649035504290e+00 8.2477548853322716e-02 0.0000000000000000e+00  -1.7351803317133249e-02 -3.1178108701209181e-02 0.0000000000000000e+00  1.4944376711308640e+00 -1.0267062742470301e+00 0.0000000000000000e+00  1.5847059561953660e+00 -4.2689356018147268e-01 0.0000000000000000e+00  7.3145331261053836e-01 -1.3159046996053731e-03 0.0000000000000000e+00  8.7721935648192051e-01 -5.8417575815312990e-02 0.0000000000000000e+00  1.2229546160430611e+00 2.0538936123013957e-01 0.0000000000000000e+00  1.1487683190644844e+00 -5.8553556652788497e-02 0.0000000000000000e+00  1.2571432048003677e+00 2.0799873361887017e-01 0.0000000000000000e+00  1.0893686241462244e+00 -1.4197235030554298e-01 0.0000000000000000e+00  4.2468769380229515e-01 -3.1031890706797519e-02 0.0000000000000000e+00  1.6868352697304729e+00 -3.3975891754476045e-01 0.0000000000000000e+00  -5.2426815509202869e-02 -2.4129875979803365e-02 0.0000000000000000e+00  1.5450138421266855e+00 1.1375706771236636e+00 0.0000000000000000e+00  -4.0046790603806302e-02 8.1987890398496688e-02 0.0000000000000000e+00  1.9438065107419111e+00 7.7811514968401851e-01 0.0000000000000000e+00  8.5900154508086013e-01 9.5353097404763265e-01 0.0000000000000000e+00  4.3361697087960249e-01 2.3165366766491191e-01 0.0000000000000000e+00  1.0111257897362902e+00 -1.9552628015434070e-02 0.0000000000000000e+00  1.3048785823652127e+00 -7.3484307385803874e-02 0.0000000000000000e+00  9.8395253774946445e-01 -2.7258258634731286e-01 0.0000000000000000e+00  1.4902148494987675e+00 2.4244724806146495e-01 0.0000000000000000e+00  -4.0763926472282865e-02 1.1564117938961432e-01 0.0000000000000000e+00  5.8765528775217046e-01 -6.0035331478292453e-01 0.0000000000000000e+00  1.0728795928096742e+00 -1.2726185660940356e-01 0.0000000000000000e+00  1.9197461732947356e+00 -7.9336783904944741e-01 0.0000000000000000e+00  1.1370676424716812e+00 1.1848519203043256e-04 0.0000000000000000e+00  3.6196125506617005e-01 1.7972371338579349e-02 0.0000000000000000e+00  -4.1381160052959604e-01 -6.7392865148345471e-01 0.0000000000000000e+00  1.2747591892154815e+00 -4.9407560003683137e-01 0.0000000000000000e+00  1.1482633411814804e+00 -1.0660042032561097e+00 0.0000000000000000e+00  1.3175552048049655e+00 -1.2203965259766054e-01 0.0000000000000000e+00  8.8035287897479975e-01 -1.0409834090987517e-01 0.0000000000000000e+00  1.1075875284545307e+00 1.0019466649428845e-01 0.0000000000000000e+00  6.9710362663472814e-01 -5.8190562604785105e-02 0.0000000000000000e+00  4.2980746382732735e-03 -3.8433934505592932e-02 0.0000000000000000e+00  1.3602851239482894e+00 2.6429979521675053e-02 0.0000000000000000e+00  1.7695743491654945e+00 -5.1061247644534569e-01 0.0000000000000000e+00  1.2378000846694801e+00 4.0612505065069603e-02 0.0000000000000000e+00  1.7494765103877956e+00 -9.8851544308056793e-01 0.0000000000000000e+00  9.6228762382753130e-01 4.3126963054865360e-02 0.0000000000000000e+00  1.5487621774274294e+00 -1.0276808765376401e-02 0.0000000000000000e+00  1.4485681280893292e+00 1.4001208202198639e-01 0.0000000000000000e+00  1.4159702831856962e+00 1.0188528780343153e-01 0.0000000000000000e+00  1.0353818852933394e+00 1.5246966952016006e-01 0.0000000000000000e+00  -1.7585169806800352e-01 1.1355199214315109e-01 0.0000000000000000e+00  1.0873593484582083e+00 1.6839448814583092e-02 0.0000000000000000e+00  1.3770972857658381e+00 4.4710316287938562e-01 0.0000000000000000e+00  1.3158144434910664e+00 -7.5524016758325707e-02 0.0000000000000000e+00  1.2752771449604436e+00 1.8730308865186196e-01 0.0000000000000000e+00  1.4402431796893391e+00 1.1517846387368827e-01 0.0000000000000000e+00  1.3056198074172600e+00 1.2444323106806700e-01 0.0000000000000000e+00  1.2293312816207411e+00 2.6280091688404927e-01 0.0000000000000000e+00  8.2938987462557734e-01 1.2376697780290062e-01 0.0000000000000000e+00  1.9400540566526852e+00 -2.8061657756025044e-01 0.0000000000000000e+00  -6.2563885427349822e-02 1.9613551321673162e-01 0.0000000000000000e+00  1.3927852393999145e+00 1.4896950216053273e-01 0.0000000000000000e+00  1.5977657280370159e+00 3.9103053349796457e-01 0.0000000000000000e+00  1.4388264352879196e+00 -4.2012926346646572e-02 0.0000000000000000e+00  1.4417644625955621e+00 3.9610459202299958e-01 0.0000000000000000e+00  9.6606390621546512e-01 -2.2000619642531190e-02 0.0000000000000000e+00  1.5766755302850273e+00 4.7911134504909282e-02 0.0000000000000000e+00  1.7884128862889903e+00 -2.2882481398263219e-01 0.0000000000000000e+00  1.5355109485862952e+00 -8.2360176946616431e-02 0.0000000000000000e+00  4.7408384142866529e-02 1.7292558476509245e-01 0.0000000000000000e+00  1.2639838270092587e+00 -2.9824657660557335e-01 0.0000000000000000e+00  1.4172373907600364e+00 -5.9798520805860633e-01 0.0000000000000000e+00  1.7056783499030288e+00 -6.2023665394347158e-02 0.0000000000000000e+00  7.8259347785484601e-01 5.5914261768124550e-02 0.0000000000000000e+00  1.2872616556144139e+00 2.0896926657427514e-01 0.0000000000000000e+00  8.3465723194035091e-01 -4.1085063213564942e-02 0.0000000000000000e+00  1.3542374015176444e+00 -2.1425269054443649e-01 0.0000000000000000e+00  1.9050260072984069e+00 1.5189563743645929e-01 0.0000000000000000e+00  8.5208460772690597e-01 1.4174045264150478e-01 0.0000000000000000e+00  1.0503124708006280e+00 -2.2900423249571561e-01 0.0000000000000000e+00  9.3729172270279004e-01 -1.5216958552081036e-01 0.0000000000000000e+00  -3.9990335600113752e-01 -2.7287415610273724e-01 0.0000000000000000e+00  -1.8479869544847838e-01 2.9313799108249782e-02 0.0000000000000000e+00  1.0022405222104205e+00 -2.0475652064684009e-03 0.0000000000000000e+00  9.4057724424186506e-01 -8.0188127841240419e-03 0.0000000000000000e+00  1.4902089303651211e+00 8.5856875375582586e-01 0.0000000000000000e+00  1.4258234862743049e+00 -3.1434275479886101e-02 0.0000000000000000e+00  3.6061976280935060e-01 5.2208147582838083e-01 0.0000000000000000e+00  7.7438860249578834e-01 1.4335897248729659e-02 0.0000000000000000e+00  1.4824338843419298e+00 -1.6209707985811072e-02 0.0000000000000000e+00  8.4627805656832200e-01 -5.4858603655501591e-03 0.0000000000000000e+00  3.1792092636939481e-02 -8.1853784088071244e-02 0.0000000000000000e+00  7.7350494451942642e-01 4.3227281268092485e-02 0.0000000000000000e+00  7.6050776580438351e-01 2.3013933306873693e-02 0.0000000000000000e+00  1.1180881522129178e+00 1.1628378863378419e+00 0.0000000000000000e+00  1.7098833407527794e+00 9.7776812194313312e-01 0.0000000000000000e+00  4.6109710451048086e-01 6.8288350181615498e-01 0.0000000000000000e+00  3.0255990056387877e-01 -2.1831817543755563e-01 0.0000000000000000e+00  7.9795814526658437e-01 -1.1463229853690205e-02 0.0000000000000000e+00  -1.9493583982931655e-02 5.6683595781424997e-02 0.0000000000000000e+00  1.4861555436759082e+00 3.7518447302595009e-01 0.0000000000000000e+00  -5.3510251135474939e-02 -3.8926253828484109e-02 0.0000000000000000e+00  -2.0310270973552185e-02 2.5421779271575472e-02 0.0000000000000000e+00  1.2969588364462792e+00 -6.2177533011498016e-03 0.0000000000000000e+00  1.1988967459020317e+00 -4.7176675024796548e-02 0.0000000000000000e+00  7.3216155218684864e-01 -9.6294721580455955e-01 0.0000000000000000e+00  1.1596297854958153e+00 -5.9843255489073578e-02 0.0000000000000000e+00  6.1335142873823889e-01 5.5224416349010139e-02 0.0000000000000000e+00  6.0150298676020253e-01 1.9219118903800398e-03 0.0000000000000000e+00  7.9478785280625541e-01 3.2056916300684933e-02 0.0000000000000000e+00  1.3687730685682993e+00 -4.5844797399184839e-01 0.0000000000000000e+00  8.6442296457586254e-01 6.8006317977617015e-01 0.0000000000000000e+00  5.2983345588669017e-01 1.9787608901225669e-02 0.0000000000000000e+00  7.0220769462305954e-01 -2.2815331103017419e-02 0.0000000000000000e+00  -1.3057208694119857e-01 -3.2383428754883238e-02 0.0000000000000000e+00  9.0824640077437924e-01 -1.0409918039151497e-02 0.0000000000000000e+00  1.4358067064177127e+00 2.3472688375324652e-01 0.0000000000000000e+00  5.9605095584373624e-01 -8.5957149717065563e-03 0.0000000000000000e+00  1.9412166267660242e+00 7.2556641470538474e-02 0.0000000000000000e+00  1.4588671567492981e+00 -1.8150654503775625e-03 0.0000000000000000e+00  1.5979156258135634e+00 5.8498816812557430e-01 0.0000000000000000e+00  7.7843290910744944e-01 2.2647114313685924e-02 0.0000000000000000e+00  1.5413515787685224e+00 -1.7705219494415150e-01 0.0000000000000000e+00  1.5363537163420014e+00 -3.8091462465809155e-02 0.0000000000000000e+00  1.5054856060791424e+00 -3.4321930188210753e-01 0.0000000000000000e+00  1.4916360230420462e+00 2.4198382279519141e-02 0.0000000000000000e+00  1.3083389308026976e+00 -8.4199597936935711e-02 0.0000000000000000e+00  1.3616606249357712e+00 -2.6665433467424431e-02 0.0000000000000000e+00  1.3749601391079644e+00 -4.9067714564701576e-01 0.0000000000000000e+00  1.5085706297565882e+00 -1.1276115492847599e-01 0.0000000000000000e+00  7.7992060742520730e-01 -3.2350132837539575e-01 0.0000000000000000e+00  1.3090890347519548e+00 -7.