<?xml version="1.0"?>
<VTKFile type="UnstructuredGrid"  version="0.1"  >
<UnstructuredGrid>
<Piece  NumberOfPoints="3852" NumberOfCells="7360">
<Points>
<DataArray  type="Float64"  NumberOfComponents="3"  format="ascii">0 0 0  0 0.41 0  2.2 0.41 0  2.2 0 0  0.2 0.15 0  0.15 0.2 0  0.2 0.25 0  0.25 0.2 0  0.2097545161007899 0.1509607359798352 0  0.219134171618224 0.153806023374423 0  0.2277785116509268 0.1584265193848371 0  0.2353553390592504 0.1646446609405956 0  0.2415734806150793 0.1722214883489481 0  0.2461939766255306 0.1808658283816641 0  0.249039264020151 0.1902454838991403 0  0.2490392640201666 0.2097545161007811 0  0.2461939766255869 0.2191341716182 0  0.2415734806151802 0.2277785116509009 0  0.2353553390594108 0.235355339059244 0  0.2277785116510524 0.2415734806150789 0  0.2191341716182962 0.2461939766255471 0  0.209754516100834 0.2490392640201561 0  0.1902454838992189 0.2490392640201666 0  0.1808658283818 0.2461939766255869 0  0.1722214883490991 0.2415734806151802 0  0.164644660940756 0.2353553390594108 0  0.1584265193849211 0.2277785116510524 0  0.1538060233744529 0.2191341716182962 0  0.150960735979844 0.209754516100834 0  0.1509607359798352 0.1902454838992101 0  0.153806023374423 0.180865828381776 0  0.1584265193848371 0.1722214883490732 0  0.1646446609405956 0.1646446609407496 0  0.1722214883489481 0.1584265193849207 0  0.1808658283816641 0.1538060233744694 0  0.1902454838991403 0.150960735979849 0  0.09999999999980318 0 0  0.1999999999996354 0 0  0.2999999999994593 0 0  0.3999999999991452 0 0  0.4999999999988309 0 0  0.599999999998495 0 0  0.6999999999982023 0 0  0.7999999999979096 0 0  0.8999999999975735 0 0  0.9999999999972848 0 0  1.099999999997053 0 0  1.199999999997309 0 0  1.299999999997566 0 0  1.399999999997821 0 0  1.49999999999809 0 0  1.599999999998377 0 0  1.69999999999859 0 0  1.799999999998877 0 0  1.899999999999145 0 0  1.999999999999386 0 0  2.099999999999693 0 0  2.2 0.08199999999981657 0  2.2 0.1639999999995688 0  2.2 0.2459999999995603 0  2.2 0.327999999999785 0  2.100000000000048 0.41 0  2.000000000000269 0.41 0  1.900000000000422 0.41 0  1.800000000000679 0.41 0  1.700000000000931 0.41 0  1.600000000001326 0.41 0  1.500000000001665 0.41 0  1.400000000002032 0.41 0  1.300000000002395 0.41 0  1.200000000002644 0.41 0  1.100000000002865 0.41 0  1.000000000002617 0.41 0  0.900000000002368 0.41 0  0.8000000000021192 0.41 0  0.7000000000018587 0.41 0  0.6000000000015786 0.41 0  0.5000000000013736 0.41 0  0.4000000000010933 0.41 0  0.3000000000008329 0.41 0  0.2000000000005997 0.41 0  0.1000000000003003 0.41 0  0 0.3280000000001975 0  0 0.2460000000004372 0  0 0.1640000000004437 0  0 0.08200000000021695 0  0.439039350479032 0.2235433210862024 0  0.3557293424662716 0.1539377961885917 0  0.3450132387946972 0.2399891502764809 0  0.2900756359792848 0.08507884665974728 0  0.2884413411145515 0.3059878288466324 0  0.2102195502178943 0.3385267178242456 0  0.137328909169326 0.3152847369018352 0  0.08490385663776813 0.2628976192695439 0  0.08063302347471875 0.188368977740952 0  0.1005937615311739 0.1162460982751979 0  0.1621860847198582 0.08598327887900903 0  0.3012864586130264 0.1926027915888804 0  1.999140000000448 0.2049999999995642 0  0.2742354912953259 0.1572259708446958 0  0.2871471664627305 0.2264358039321654 0  0.6542851578645765 0.1981889790488746 0  0.2651366296338276 0.2534562504463119 0  0.2371819217149928 0.0977949043027586 0  1.651678197071202 0.2145186615851206 0  1.349674714201118 0.2086119645070391 0  0.9627539291831038 0.2056711800839285 0  0.2360880502985623 0.2733043913425156 0  1.159884231859056 0.2050429640239795 0  0.2502927927237266 0.1358797630898622 0  0.2080582834123368 0.2835355213895352 0  0.1805439632603489 0.278338480667804 0  0.1486243506827335 0.2626014098227327 0  0.1266658889266303 0.2392753516137401 0  0.1179814841582247 0.2069380844236527 0  0.1225167704961566 0.1764957192948648 0  0.1357996569043286 0.1472158045151807 0  0.1619764829264572 0.126298308975886 0  0.1935640279204225 0.116654032325456 0  1.82457000000085 0.2346439024393236 0  0.8027657238591595 0.149277802568535 0  1.498563450727992 0.2632867809910664 0  0.2770405925201826 0.1924926016722167 0  0.470924801584011 0.09138612536042019 0  0.550693598792917 0.2898604497866635 0  0.381089831438127 0.3238078833671811 0  2.074516462495042 0.125705772324225 0  2.083599037046577 0.2769549245607841 0  0.2692296340100125 0.2210592970306522 0  0.7614733075682367 0.2839235561638241 0  1.536698221979284 0.1258192462655419 0  1.231809489345021 0.1282542717942667 0  1.054759157670174 0.1242749934189342 0  1.754535566851005 0.1223197024158991 0  1.90452621597739 0.1324728094649104 0  0.2672409321155211 0.178737994598723 0  1.254401531996246 0.2902808614622134 0  1.04350934597445 0.2986664252663559 0  0.0749710792305778 0.3208721925318313 0  0.5425289614095572 0.165152457827861 0  0.1663208394680799 0.2644065126118989 0  0.1471335176887868 0.2433864007787126 0  0.1345556779484054 0.219852318055334 0  0.131940483167677 0.1932967226753857 0  0.1941574795820069 0.2685534232066453 0  0.2226696214021025 0.1252682734732412 0  0.2193882214552426 0.2661718674478616 0  0.1396865053227576 0.1677617654469802 0  0.8749487631478475 0.295170577255529 0  1.424301820545763 0.1157348858866879 0  1.918515045506933 0.2902236143624367 0  1.744876807925144 0.306628844405037 0  0.2443979144126529 0.254353837216211 0  0.2569054246570621 0.2306780201523878 0  0.2632507216716993 0.2062296523407826 0  0.4609453431326088 0.3138128990490959 0  0.3578015395476809 0.08253318517696946 0  0.2529777826635333 0.155582948480283 0  0.1580369715200277 0.1487041474358234 0  0.652872088668587 0.3101079993636056 0  0.297147332491062 0.2558065812325378 0  0.6188247313471635 0.1101603945467571 0  0.8951149554961688 0.1123812542864208 0  1.592749166085722 0.2985190085719691 0  1.40420309431358 0.2992155383468256 0  1.649189110727275 0.1000387439201274 0  0.2301663900864273 0.1432830242131801 0  0.2064839406544439 0.1345771465164309 0  0.2548204572493643 0.1702022465417566 0  0.1606700828011604 0.2481621709908606 0  0.2605987457303776 0.1928909671966518 0  0.1826942838524941 0.2594610608897559 0  0.1456438338561037 0.2290651013631561 0  0.1387681034994896 0.2058679665896095 0  1.140902260384949 0.3081952438204152 0  2.123402621966431 0.2039515281261525 0  0.7272188829630218 0.1047469619375249 0  0.2060868819369127 0.2616331638469837 0  0.246763614216289 0.2411610007697902 0  0.1405961691450822 0.1819800466423126 0  1.149638048863541 0.08264492713269313 0  0.1809997740285721 0.1365020267363126 0  1.993198408221569 0.09755938404998035 0  0.2287111352430851 0.2547015941619741 0  0.3818716699056283 0.2060398770290832 0  0.39147508084147 0.2656155699545688 0  0.151201080877373 0.1608659990301362 0  0.0542521118046473 0.1382221876243976 0  0.06190301158313444 0.0685934933767465 0  1.317316039400266 0.1015983144534349 0  0.2176417279723976 0.1415790407114221 0  0.2401571300978209 0.1529210337009423 0  0.2618092962776011 0.3566662607419938 0  0.1941527094396574 0.1377969918002053 0  0.9590486261329707 0.3255353063371385 0  0.1708201090411339 0.1447474051814825 0  1.837592370686806 0.3302992722413595 0  0.3197015570210796 0.1212159119695666 0  0.4155281956943757 0.1409543952531078 0  0.0549491513262805 0.2307535706287103 0  0.1668210562270142 0.3605647861782867 0  0.2854688902460447 0.2093700809023571 0  2.013251581901814 0.3292746985146142 0  0.1192191106244758 0.2809901915857802 0  0.2487958366614321 0.04556523514103697 0  0.09061021186838321 0.2240174335271237 0  1.737143840576958 0.20912817770623 0  0.04515017012776967 0.2784708690411318 0  0.5347554646753627 0.08988970780599832 0  0.977104673723579 0.08241628541188413 0  0.336509991617897 0.2888965225844298 0  0.2569238041969055 0.2173711314485607 0  1.906541186051535 0.2125389476829634 0  0.1762338839607841 0.3102437166134606 0  1.449268841077636 0.201011295143529 0  0.8555371485878378 0.2099663446585434 0  1.837208236203613 0.07556229833764837 0  1.264402545318887 0.1992523923163096 0  1.068181074047183 0.2155119107017876 0  0.3158931250274742 0.3421721218291775 0  0.2731958384900449 0.2373435058667565 0  0.09875906484220501 0.1533097574901186 0  0.7355755433976705 0.2066339904079041 0  1.567440499207928 0.2049999999995983 0  1.329829828222916 0.3295825481537897 0  0.8214190147401245 0.07894167681990104 0  1.525459989258997 0.3394220200696043 0  0.1990897327079506 0.06300531675246424 0  0.244701762210989 0.3062404318132603 0  0.1033853772622983 0.3551443431224104 0  0.1178236825374896 0.07148041782551597 0  0.1558198999929474 0.04409380269139784 0  0.3389178979413869 0.198678920661321 0  0.310790717645908 0.2196004930752872 0  2.125022007676643 0.3402049371791425 0  2.130028889485561 0.06535501282233655 0  0.4821161335597635 0.1626909543876269 0  0.2838678108956019 0.1254276466262967 0  0.5062815929260498 0.2376271077316994 0  1.663059277092996 0.3422301118688678 0  1.82292665764828 0.1574809263836269 0  2.052538557905295 0.05717536030732174 0  0.3078251537889645 0.16056368457456 0  0.8108267070172145 0.3390047366820738 0  1.487254632568403 0.0703866281621833 0  0.155004430757041 0.2369517702015699 0  0.1725545045705267 0.2519594403466565 0  0.1445581653510352 0.2167994984574706 0  0.1420710285613199 0.1942747855116325 0  1.461861739291679 0.3471998553985149 0  0.2372128969196007 0.2453440460936858 0  0.1943665918892754 0.2580518465884657 0  0.2452139232912363 0.1629124725160763 0  0.2555786751481889 0.1825885041235872 0  2.14640473333793 0.2790222779730848 0  2.145589594789407 0.1282024626544199 0  0.1486651579751984 0.1726583296292201 0  0.550000000001476 0.3603327897285098 0  0.0505668771231032 0.3660023622363767 0  1.049999999997169 0.05217028468202135 0  1.244771793631775 0.05744029386223062 0  0.1356759337238615 0.1094447816941579 0  0.5872326411628903 0.2223148728195226 0  0.2168458206248643 0.2558159203714847 0  1.749999999998732 0.05166028789524129 0  0.2855257256666041 0.1763246086558152 0  1.92
[...]
<PointData  Vectors="f_22"> 
<DataArray  type="Float64"  Name="f_22"  NumberOfComponents="3" format="ascii">0.0000000000000000e+00 0.0000000000000000e+00 0.0000000000000000e+00  0.0000000000000000e+00 0.0000000000000000e+00 0.0000000000000000e+00  0.0000000000000000e+00 0.0000000000000000e+00 0.0000000000000000e+00  0.0000000000000000e+00 0.0000000000000000e+00 0.0000000000000000e+00  0.0000000000000000e+00 0.0000000000000000e+00 0.0000000000000000e+00  0.0000000000000000e+00 0.0000000000000000e+00 0.0000000000000000e+00  0.0000000000000000e+00 0.0000000000000000e+00 0.0000000000000000e+00  0.0000000000000000e+00 0.0000000000000000e+00 0.0000000000000000e+00  0.0000000000000000e+00 0.0000000000000000e+00 0.0000000000000000e+00  0.0000000000000000e+00 0.0000000000000000e+00 0.0000000000000000e+00  0.0000000000000000e+00 0.0000000000000000e+00 0.0000000000000000e+00  0.0000000000000000e+00 0.0000000000000000e+00 0.0000000000000000e+00  0.0000000000000000e+00 0.0000000000000000e+00 0.0000000000000000e+00  0.0000000000000000e+00 0.0000000000000000e+00 0.0000000000000000e+00  0.0000000000000000e+00 0.0000000000000000e+00 0.0000000000000000e+00  0.0000000000000000e+00 0.0000000000000000e+00 0.0000000000000000e+00  0.0000000000000000e+00 0.0000000000000000e+00 0.0000000000000000e+00  0.0000000000000000e+00 0.0000000000000000e+00 0.0000000000000000e+00  0.0000000000000000e+00 0.0000000000000000e+00 0.0000000000000000e+00  0.0000000000000000e+00 0.0000000000000000e+00 0.0000000000000000e+00  0.0000000000000000e+00 0.0000000000000000e+00 0.0000000000000000e+00  0.0000000000000000e+00 0.0000000000000000e+00 0.0000000000000000e+00  0.0000000000000000e+00 0.0000000000000000e+00 0.0000000000000000e+00  0.0000000000000000e+00 0.0000000000000000e+00 0.0000000000000000e+00  0.0000000000000000e+00 0.0000000000000000e+00 0.0000000000000000e+00  0.0000000000000000e+00 0.0000000000000000e+00 0.0000000000000000e+00  0.0000000000000000e+00 0.0000000000000000e+00 0.0000000000000000e+00  0.0000000000000000e+00 0.0000000000000000e+00 0.0000000000000000e+00  0.0000000000000000e+00 0.0000000000000000e+00 0.0000000000000000e+00  0.0000000000000000e+00 0.0000000000000000e+00 0.0000000000000000e+00  0.0000000000000000e+00 0.0000000000000000e+00 0.0000000000000000e+00  0.0000000000000000e+00 0.0000000000000000e+00 0.0000000000000000e+00  0.0000000000000000e+00 0.0000000000000000e+00 0.0000000000000000e+00  0.0000000000000000e+00 0.0000000000000000e+00 0.0000000000000000e+00  0.0000000000000000e+00 0.0000000000000000e+00 0.0000000000000000e+00  0.0000000000000000e+00 0.0000000000000000e+00 0.0000000000000000e+00  0.0000000000000000e+00 0.0000000000000000e+00 0.0000000000000000e+00  0.0000000000000000e+00 0.0000000000000000e+00 0.0000000000000000e+00  0.0000000000000000e+00 0.0000000000000000e+00 0.0000000000000000e+00  0.0000000000000000e+00 0.0000000000000000e+00 0.0000000000000000e+00  0.0000000000000000e+00 0.0000000000000000e+00 0.0000000000000000e+00  0.0000000000000000e+00 0.0000000000000000e+00 0.0000000000000000e+00  0.0000000000000000e+00 0.0000000000000000e+00 0.0000000000000000e+00  0.0000000000000000e+00 0.0000000000000000e+00 0.0000000000000000e+00  0.0000000000000000e+00 0.0000000000000000e+00 0.0000000000000000e+00  0.0000000000000000e+00 0.0000000000000000e+00 0.0000000000000000e+00  0.0000000000000000e+00 0.0000000000000000e+00 0.0000000000000000e+00  0.0000000000000000e+00 0.0000000000000000e+00 0.0000000000000000e+00  0.0000000000000000e+00 0.0000000000000000e+00 0.0000000000000000e+00  0.0000000000000000e+00 0.0000000000000000e+00 0.0000000000000000e+00  0.0000000000000000e+00 0.0000000000000000e+00 0.0000000000000000e+00  0.0000000000000000e+00 0.0000000000000000e+00 0.0000000000000000e+00  0.0000000000000000e+00 0.0000000000000000e+00 0.0000000000000000e+00  0.0000000000000000e+00 0.0000000000000000e+00 0.0000000000000000e+00  0.0000000000000000e+00 0.0000000000000000e+00 0.0000000000000000e+00  0.0000000000000000e+00 0.0000000000000000e+00 0.0000000000000000e+00  0.0000000000000000e+00 0.0000000000000000e+00 0.0000000000000000e+00  1.1176362894786878e+00 -1.2957361003125466e-04 0.0000000000000000e+00  1.2246297485771864e+00 -1.2333005508330941e-04 0.0000000000000000e+00  1.2245909234741423e+00 6.1919904319223527e-06 0.0000000000000000e+00  1.1178867338097322e+00 -7.4777323484409260e-06 0.0000000000000000e+00  0.0000000000000000e+00 0.0000000000000000e+00 0.0000000000000000e+00  0.0000000000000000e+00 0.0000000000000000e+00 0.0000000000000000e+00  0.0000000000000000e+00 0.0000000000000000e+00 0.0000000000000000e+00  0.0000000000000000e+00 0.0000000000000000e+00 0.0000000000000000e+00  0.0000000000000000e+00 0.0000000000000000e+00 0.0000000000000000e+00  0.0000000000000000e+00 0.0000000000000000e+00 0.0000000000000000e+00  0.0000000000000000e+00 0.0000000000000000e+00 0.0000000000000000e+00  0.0000000000000000e+00 0.0000000000000000e+00 0.0000000000000000e+00  0.0000000000000000e+00 0.0000000000000000e+00 0.0000000000000000e+00  0.0000000000000000e+00 0.0000000000000000e+00 0.0000000000000000e+00  0.0000000000000000e+00 0.0000000000000000e+00 0.0000000000000000e+00  0.0000000000000000e+00 0.0000000000000000e+00 0.0000000000000000e+00  0.0000000000000000e+00 0.0000000000000000e+00 0.0000000000000000e+00  0.0000000000000000e+00 0.0000000000000000e+00 0.0000000000000000e+00  0.0000000000000000e+00 0.0000000000000000e+00 0.0000000000000000e+00  0.0000000000000000e+00 0.0000000000000000e+00 0.0000000000000000e+00  0.0000000000000000e+00 0.0000000000000000e+00 0.0000000000000000e+00  0.0000000000000000e+00 0.0000000000000000e+00 0.0000000000000000e+00  0.0000000000000000e+00 0.0000000000000000e+00 0.0000000000000000e+00  0.0000000000000000e+00 0.0000000000000000e+00 0.0000000000000000e+00  0.0000000000000000e+00 0.0000000000000000e+00 0.0000000000000000e+00  9.6000004962045105e-01 0.0000000000000000e+00 0.0000000000000000e+00  1.4400000744319985e+00 0.0000000000000000e+00 0.0000000000000000e+00  1.4400000744345771e+00 0.0000000000000000e+00 0.0000000000000000e+00  9.6000004962409036e-01 0.0000000000000000e+00 0.0000000000000000e+00  -3.4225915284323538e-01 1.5411563006466170e-01 0.0000000000000000e+00  3.7949027399177382e-01 -8.8430739961274082e-02 0.0000000000000000e+00  -2.4569763511244768e-04 -4.5501989631338481e-02 0.0000000000000000e+00  1.8799247938171406e+00 -8.9900904037708382e-02 0.0000000000000000e+00  1.9379164892472427e+00 1.0611025435248109e-01 0.0000000000000000e+00  1.4582563699555362e+00 2.1887546058603086e-01 0.0000000000000000e+00  1.3127924884776780e+00 3.5114740788744386e-01 0.0000000000000000e+00  1.3306447566073150e+00 2.5668769798860785e-01 0.0000000000000000e+00  1.3059544639111509e+00 -7.6830378355646475e-02 0.0000000000000000e+00  1.2651488704325178e+00 -3.3032334808989378e-01 0.0000000000000000e+00  1.4141581269429515e+00 -3.8498638460453904e-01 0.0000000000000000e+00  -2.2007252196149493e-01 -1.1352786770522846e-01 0.0000000000000000e+00  1.2258431522237376e+00 -3.3675654970234250e-05 0.0000000000000000e+00  5.0448774475743648e-02 -1.2368360259176259e-01 0.0000000000000000e+00  -1.2606086370974245e-01 2.5560157462555459e-02 0.0000000000000000e+00  6.8603986249124016e-01 -3.0811623607222721e-01 0.0000000000000000e+00  2.5296004141411310e-01 4.7081894037408645e-02 0.0000000000000000e+00  1.8935937959320142e+00 -2.6104650289570952e-01 0.0000000000000000e+00  1.2229256420255681e+00 -7.9241729285001450e-03 0.0000000000000000e+00  1.1750397436870710e+00 5.3602263002215662e-02 0.0000000000000000e+00  1.2430342492764486e+00 9.1602358057872577e-02 0.0000000000000000e+00  1.7078421344915398e+00 2.1183372970187572e-01 0.0000000000000000e+00  1.3408882379148219e+00 -5.9866565875595204e-02 0.0000000000000000e+00  8.5935772856726644e-01 -7.5933968136884203e-02 0.0000000000000000e+00  1.9897542439855831e+00 4.4457703909991469e-01 0.0000000000000000e+00  1.8572630745087251e+00 6.4443198744442420e-01 0.0000000000000000e+00  1.4877953745459240e+00 7.7127060886982834e-01 0.0000000000000000e+00  1.1436829891245390e+00 5.5529237056820602e-01 0.0000000000000000e+00  9.3824316314147405e-01 9.7874087849432176e-02 0.0000000000000000e+00  9.8514710359005297e-01 -4.0640351356871257e-01 0.0000000000000000e+00  1.2921759376727100e+00 -7.0841868358072724e-01 0.0000000000000000e+00  1.6506375630792915e+00 -7.2877628158265306e-01 0.0000000000000000e+00  1.9080235273067589e+00 -5.4326379468002006e-01 0.0000000000000000e+00  1.2257655813810049e+00 -7.1331151079783144e-04 0.0000000000000000e+00  1.7668271502633055e+00 2.6944038178679225e-01 0.0000000000000000e+00  1.2885700197021837e+00 -8.8588703198141210e-03 0.0000000000000000e+00  -1.2774941592232097e-01 -9.9293259993373698e-02 0.0000000000000000e+00  1.7247339280752594e+00 2.9301759928321119e-01 0.0000000000000000e+00  1.9150833856053462e+00 -4.0948853285932507e-01 0.0000000000000000e+00  1.8301291588678259e+00 -3.8089545979332652e-02 0.0000000000000000e+00  1.2138735733803627e+00 -2.7144523619467802e-05 0.0000000000000000e+00  1.2181288307284794e+00 1.7421633396395444e-05 0.0000000000000000e+00  -9.5723272643413918e-02 5.0743877528852260e-02 0.0000000000000000e+00  1.4342565489328385e+00 3.6475137285308309e-02 0.0000000000000000e+00  1.1936445548374963e+00 -3.7395760207701665e-03 0.0000000000000000e+00  1.4112076242730516e+00 -2.2850970070177737e-02 0.0000000000000000e+00  1.3484419459967900e+00 -6.6022185810513903e-02 0.0000000000000000e+00  1.2100478261261771e+00 -8.2019322780217143e-04 0.0000000000000000e+00  1.2176707828704558e+00 -1.0992995169550970e-04 0.0000000000000000e+00  -7.2628661878778228e-02 -1.4534672953200417e-01 0.0000000000000000e+00  1.2899801768136359e+00 7.7872266186954989e-02 0.0000000000000000e+00  1.3695606047433377e+00 -2.0351992949912912e-02 0.0000000000000000e+00  1.0777873333200187e+00 1.6994501308704435e-01 0.0000000000000000e+00  4.5227398742563701e-01 2.9696334118310491e-01 0.0000000000000000e+00  1.7367077773038138e+00 8.5641609964369425e-01 0.0000000000000000e+00  1.2289341548985568e+00 9.3836230754650429e-01 0.0000000000000000e+00  7.5720648013264624e-01 5.0442580475967280e-01 0.0000000000000000e+00  6.4544385310419639e-01 -2.0514145504751552e-01 0.0000000000000000e+00  2.0031962774951118e+00 5.9788092569535678e-01 0.0000000000000000e+00  1.9027916807390155e+00 -3.1992572227779864e-01 0.0000000000000000e+00  1.4682917340526447e+00 2.1158031102771394e-01 0.0000000000000000e+00  9.6673336664937826e-01 -8.0739582205245386e-01 0.0000000000000000e+00  1.4836230018275980e+00 -8.5683443315749726e-03 0.0000000000000000e+00  1.2034749389922046e+00 -1.9970047307511545e-02 0.0000000000000000e+00  1.2086951626112039e+00 -2.5176458265356038e-06 0.0000000000000000e+00  1.1871191165050228e+00 -1.1211337135116025e-03 0.0000000000000000e+00  2.5657511080051459e-01 4.5397016985114884e-02 0.0000000000000000e+00  -6.6984452858042873e-02 9.0509587344556539e-02 0.0000000000000000e+00  -6.1396986830209915e-02 -1.1173268245340122e-02 0.0000000000000000e+00  1.9101126615640867e+00 -1.3542655270932763e-01 0.0000000000000000e+00  1.9039322210359861e+00 7.5426130462593069e-02 0.0000000000000000e+00  -1.1695196460952510e-02 -9.2253254387818243e-02 0.0000000000000000e+00  1.5127496146873662e+00 -1.0504458634606937e+00 0.0000000000000000e+00  1.4345737682021047e+00 -2.4443727452665587e-01 0.0000000000000000e+00  3.8256061843783212e-01 2.2428682999387660e-03 0.0000000000000000e+00  1.5854502256295417e+00 7.8042513589308249e-02 0.0000000000000000e+00  1.3147863770903374e+00 -2.0023472358249556e-02 0.0000000000000000e+00  1.2064483973597073e+00 5.3546865324207544e-04 0.0000000000000000e+00  1.2617761626984898e+00 2.3741612016671960e-03 0.0000000000000000e+00  1.1771439144248530e+00 8.4788557533398395e-04 0.0000000000000000e+00  4.0230725291118424e-01 -4.0673097671281702e-02 0.0000000000000000e+00  1.6852175177321631e+00 -3.4981376550195786e-01 0.0000000000000000e+00  -6.0560516335195817e-02 -1.2444582881381380e-01 0.0000000000000000e+00  1.5029178636954845e+00 1.1099515675719835e+00 0.0000000000000000e+00  -4.6267477145967482e-02 -8.2739697413520941e-02 0.0000000000000000e+00  1.8709943797795527e+00 7.6797699424922650e-01 0.0000000000000000e+00  8.3684783126781337e-01 9.1477452005770132e-01 0.0000000000000000e+00  4.2851901824643712e-01 1.8941834878768385e-01 0.0000000000000000e+00  1.1738851612072538e+00 1.0457470244383622e-01 0.0000000000000000e+00  1.2258794090571701e+00 -2.4704541416882751e-05 0.0000000000000000e+00  1.5836331615620711e+00 2.1659619413078307e-01 0.0000000000000000e+00  1.3695991980458291e+00 2.4718847253443141e-01 0.0000000000000000e+00  -5.1568710961845947e-02 7.9333743290824890e-02 0.0000000000000000e+00  5.9654355944798643e-01 -6.3868068076318318e-01 0.0000000000000000e+00  1.0813729099513860e+00 -3.9646616282683601e-02 0.0000000000000000e+00  1.9355968284206126e+00 -8.0866535524597194e-01 0.0000000000000000e+00  1.1724750689430223e+00 -1.6002132644628202e-05 0.0000000000000000e+00  2.8512954633637322e-01 2.7571218641093246e-02 0.0000000000000000e+00  -4.7728320184857076e-01 -6.5154002863232044e-02 0.0000000000000000e+00  8.4479741299869049e-01 -5.0610474498302978e-02 0.0000000000000000e+00  1.1656003067558540e+00 -1.0951110566551212e+00 0.0000000000000000e+00  1.3197072098000660e+00 -1.3761158401125900e-01 0.0000000000000000e+00  8.8447539484434246e-01 -1.1382686545195449e-01 0.0000000000000000e+00  1.1952624211925176e+00 -5.0784768538787127e-02 0.0000000000000000e+00  6.7925427710953434e-01 -6.4483848197805560e-02 0.0000000000000000e+00  -8.6817527282037812e-03 -5.7525941508813211e-02 0.0000000000000000e+00  1.4048786290491395e+00 8.2724693975142274e-02 0.0000000000000000e+00  1.7747903146929955e+00 -5.1984171010551683e-01 0.0000000000000000e+00  1.0754888424086104e+00 -5.5450044445087429e-02 0.0000000000000000e+00  1.7672391924918398e+00 -1.0060474393606138e+00 0.0000000000000000e+00  1.1073170443409328e+00 -3.4342506253277388e-05 0.0000000000000000e+00  1.5900192254171996e+00 -2.8330012059754967e-02 0.0000000000000000e+00  1.1348510419297753e+00 2.1467359396572486e-01 0.0000000000000000e+00  1.4136987289240384e+00 8.5493292716543379e-02 0.0000000000000000e+00  1.0305347677324919e+00 1.6312922153954060e-01 0.0000000000000000e+00  -1.7677295530093357e-01 -2.8116484578918431e-02 0.0000000000000000e+00  1.1125890513422381e+00 5.3183562899501684e-05 0.0000000000000000e+00  1.3603122342216927e+00 4.3354324033407937e-01 0.0000000000000000e+00  1.3603842128646786e+00 -8.6919149250009944e-02 0.0000000000000000e+00  1.2696661953936583e+00 1.6115927554779669e-01 0.0000000000000000e+00  1.2256950174340524e+00 -2.5470861682756508e-03 0.0000000000000000e+00  1.3033785442486463e+00 1.1504268741637359e-01 0.0000000000000000e+00  1.5345289105257558e+00 1.9384803135674997e-01 0.0000000000000000e+00  9.8770486673648061e-01 -8.0929171625566593e-02 0.0000000000000000e+00  1.8128838857609206e+00 -1.2686674548361516e-02 0.0000000000000000e+00  -4.4475472589520018e-02 5.3967836042114560e-02 0.0000000000000000e+00  1.2259883230395754e+00 -1.9942670080653292e-04 0.0000000000000000e+00  1.5738414727143550e+00 4.0812855081710259e-01 0.0000000000000000e+00  1.1826137381255202e+00 2.0339332850496092e-02 0.0000000000000000e+00  1.2733939366936018e+00 1.5992041528989109e-01 0.0000000000000000e+00  1.0844359853385590e+00 -9.3206784219759391e-05 0.0000000000000000e+00  1.1886110952863618e+00 -3.8292287229570884e-02 0.0000000000000000e+00  1.4917450410902988e+00 -7.5020208979028669e-02 0.0000000000000000e+00  1.6438860152940404e+00 2.9289325152561926e-02 0.0000000000000000e+00  -4.1211235263013617e-02 6.5393967855024784e-02 0.0000000000000000e+00  1.2700070904754257e+00 -3.2487186635425652e-01 0.0000000000000000e+00  8.5001361783458418e-01 -1.8781544259686758e-01 0.0000000000000000e+00  1.2177356099670023e+00 -1.8878782499588371e-02 0.0000000000000000e+00  1.0944511428669053e+00 2.0390225843279392e-02 0.0000000000000000e+00  9.1455420120533848e-01 8.1738885616559245e-02 0.0000000000000000e+00  1.0481478226507723e+00 8.6612371266376938e-03 0.0000000000000000e+00  1.3842068150148517e+00 -2.2730616127528128e-01 0.0000000000000000e+00  1.8857938658636137e+00 2.2891330753324576e-01 0.0000000000000000e+00  8.4586703806391905e-01 1.3953213090771688e-01 0.0000000000000000e+00  1.0637320659600555e+00 -2.4307713441553483e-01 0.0000000000000000e+00  9.6084712716675014e-01 -1.6066596820975471e-01 0.0000000000000000e+00  -3.5580226123333919e-01 -1.2352142552339759e-01 0.0000000000000000e+00  -2.2600932836879598e-01 -3.4575063650701870e-02 0.0000000000000000e+00  1.0487190742661754e+00 1.6681854770983708e-05 0.0000000000000000e+00  1.0160140457178213e+00 -8.3458680838832916e-05 0.0000000000000000e+00  5.8506009535535652e-01 3.9874411482042516e-01 0.0000000000000000e+00  1.4236850249540420e+00 -8.2533923992794300e-02 0.0000000000000000e+00  4.9240542857519803e-01 8.5063983149975930e-02 0.0000000000000000e+00  1.0387406236122956e+00 -2.0135592753396801e-03 0.0000000000000000e+00  1.2238340350015882e+00 -6.0881561765440176e-04 0.0000000000000000e+00  9.4492326326023168e-01 -3.3220773575587278e-05 0.0000000000000000e+00  9.4479558053654433e-02 -1.3824354131048197e-01 0.0000000000000000e+00  9.3397566916689279e-01 2.9556590238505247e-02 0.0000000000000000e+00  1.0526035319285092e+00 1.2845228353187026e-03 0.0000000000000000e+00  1.0858330522147588e+00 1.1265572355724947e+00 0.0000000000000000e+00  1.6516383398153403e+00 9.5359824037735808e-01 0.0000000000000000e+00  4.4766364215210702e-01 6.4052656251821238e-01 0.0000000000000000e+00  3.0544546551273888e-01 -2.5999219851333966e-01 0.0000000000000000e+00  9.6933901861447558e-01 1.2053786649313808e-02 0.0000000000000000e+00  -3.0441959484508830e-02 5.3229568476251481e-02 0.0000000000000000e+00  1.3906743338582168e+00 3.6672976339190377e-01 0.0000000000000000e+00  -6.3617460453864391e-02 -8.0545119362385356e-02 0.0000000000000000e+00  -4.0173643347644415e-02 -1.0269492183711555e-01 0.0000000000000000e+00  1.2171474486518672e+00 1.6856719612693333e-05 0.0000000000000000e+00  1.2155227245322549e+00 -9.1347631356756322e-05 0.0000000000000000e+00  7.4692208875639066e-01 -9.9641995441152276e-01 0.0000000000000000e+00  1.1274760834541386e+00 -1.6856060783975010e-01 0.0000000000000000e+00  6.1150894306003967e-01 5.2347387129644748e-02 0.0000000000000000e+00  6.1909363350210866e-01 -3.7225160165735495e-02 0.0000000000000000e+00  7.9813847790030956e-01 -4.0556567345211458e-02 0.0000000000000000e+00  1.3834772351797473e+00 -4.7923866033139306e-01 0.0000000000000000e+00  8.1837871760424064e-01 -2.9498797958641432e-01 0.0000000000000000e+00  4.4789303588391660e-01 2.6961181721273951e-02 0.0000000000000000e+00  8.8773113621573019e-01 -2.0224237752989512e-04 0.0000000000000000e+00  -9.0871375056831599e-02 -1.4605145049198737e-01 0.0000000000000000e+00  1.0133108519652352e+00 1.0507070538651314e-05 0.0000000000000000e+00  1.5257297675597916e+00 1.6933079423756101e-01 0.0000000000000000e+00  9.4597361492928445e-01 3.4688918155430914e-03 0.0000000000000000e+00  1.7696627317623559e+00 1.4224583607699565e-01 0.0000000000000000e+00  1.4587567781185766e+00 -1.4573014094018536e-02 0.0000000000000000e+00  1.5682339519207082e+00 5.8265227273493914e-01 0.0000000000000000e+00  8.4322051419895927e-01 -3.7293680253485499e-03 0.0000000000000000e+00  1.2211897604485853e+00 -1.8083581840347993e-03 0.0000000000000000e+00  1.2248816678706591e+00 -4.5523588874865004e-03 0.0000000000000000e+00  1.2182337780304457e+00 -2.0119858305345209e-03 0.0000000000000000e+00  1.2238090367696759e+00 -1.5880460161082086e-03 0.0000000000000000e+00  1.1973732267863453e+00 -6.6595673855128262e-04 0.0000000000000000e+00  1.3130200418786628e+00 -3.4887656825693870e-02 0.0000000000000000e+00  1.3083521255778354e+00 -6.4837215760520442e-02 0.0000000000000000e+00  1.2473113135246414e+00 -8.4093396294748893e-02 0.0000000000000000e+00  1.2879420375541706e+00 -4.5972709955564031e-02 0.0000000000000000e+00  1.19244990187