<?xml version="1.0"?>
<VTKFile type="UnstructuredGrid"  version="0.1"  >
<UnstructuredGrid>
<Piece  NumberOfPoints="3852" NumberOfCells="7360">
<Points>
<DataArray  type="Float64"  NumberOfComponents="3"  format="ascii">0 0 0  0 0.41 0  2.2 0.41 0  2.2 0 0  0.2 0.15 0  0.15 0.2 0  0.2 0.25 0  0.25 0.2 0  0.2097545161007899 0.1509607359798352 0  0.219134171618224 0.153806023374423 0  0.2277785116509268 0.1584265193848371 0  0.2353553390592504 0.1646446609405956 0  0.2415734806150793 0.1722214883489481 0  0.2461939766255306 0.1808658283816641 0  0.249039264020151 0.1902454838991403 0  0.2490392640201666 0.2097545161007811 0  0.2461939766255869 0.2191341716182 0  0.2415734806151802 0.2277785116509009 0  0.2353553390594108 0.235355339059244 0  0.2277785116510524 0.2415734806150789 0  0.2191341716182962 0.2461939766255471 0  0.209754516100834 0.2490392640201561 0  0.1902454838992189 0.2490392640201666 0  0.1808658283818 0.2461939766255869 0  0.1722214883490991 0.2415734806151802 0  0.164644660940756 0.2353553390594108 0  0.1584265193849211 0.2277785116510524 0  0.1538060233744529 0.2191341716182962 0  0.150960735979844 0.209754516100834 0  0.1509607359798352 0.1902454838992101 0  0.153806023374423 0.180865828381776 0  0.1584265193848371 0.1722214883490732 0  0.1646446609405956 0.1646446609407496 0  0.1722214883489481 0.1584265193849207 0  0.1808658283816641 0.1538060233744694 0  0.1902454838991403 0.150960735979849 0  0.09999999999980318 0 0  0.1999999999996354 0 0  0.2999999999994593 0 0  0.3999999999991452 0 0  0.4999999999988309 0 0  0.599999999998495 0 0  0.6999999999982023 0 0  0.7999999999979096 0 0  0.8999999999975735 0 0  0.9999999999972848 0 0  1.099999999997053 0 0  1.199999999997309 0 0  1.299999999997566 0 0  1.399999999997821 0 0  1.49999999999809 0 0  1.599999999998377 0 0  1.69999999999859 0 0  1.799999999998877 0 0  1.899999999999145 0 0  1.999999999999386 0 0  2.099999999999693 0 0  2.2 0.08199999999981657 0  2.2 0.1639999999995688 0  2.2 0.2459999999995603 0  2.2 0.327999999999785 0  2.100000000000048 0.41 0  2.000000000000269 0.41 0  1.900000000000422 0.41 0  1.800000000000679 0.41 0  1.700000000000931 0.41 0  1.600000000001326 0.41 0  1.500000000001665 0.41 0  1.400000000002032 0.41 0  1.300000000002395 0.41 0  1.200000000002644 0.41 0  1.100000000002865 0.41 0  1.000000000002617 0.41 0  0.900000000002368 0.41 0  0.8000000000021192 0.41 0  0.7000000000018587 0.41 0  0.6000000000015786 0.41 0  0.5000000000013736 0.41 0  0.4000000000010933 0.41 0  0.3000000000008329 0.41 0  0.2000000000005997 0.41 0  0.1000000000003003 0.41 0  0 0.3280000000001975 0  0 0.2460000000004372 0  0 0.1640000000004437 0  0 0.08200000000021695 0  0.439039350479032 0.2235433210862024 0  0.3557293424662716 0.1539377961885917 0  0.3450132387946972 0.2399891502764809 0  0.2900756359792848 0.08507884665974728 0  0.2884413411145515 0.3059878288466324 0  0.2102195502178943 0.3385267178242456 0  0.137328909169326 0.3152847369018352 0  0.08490385663776813 0.2628976192695439 0  0.08063302347471875 0.188368977740952 0  0.1005937615311739 0.1162460982751979 0  0.1621860847198582 0.08598327887900903 0  0.3012864586130264 0.1926027915888804 0  1.999140000000448 0.2049999999995642 0  0.2742354912953259 0.1572259708446958 0  0.2871471664627305 0.2264358039321654 0  0.6542851578645765 0.1981889790488746 0  0.2651366296338276 0.2534562504463119 0  0.2371819217149928 0.0977949043027586 0  1.651678197071202 0.2145186615851206 0  1.349674714201118 0.2086119645070391 0  0.9627539291831038 0.2056711800839285 0  0.2360880502985623 0.2733043913425156 0  1.159884231859056 0.2050429640239795 0  0.2502927927237266 0.1358797630898622 0  0.2080582834123368 0.2835355213895352 0  0.1805439632603489 0.278338480667804 0  0.1486243506827335 0.2626014098227327 0  0.1266658889266303 0.2392753516137401 0  0.1179814841582247 0.2069380844236527 0  0.1225167704961566 0.1764957192948648 0  0.1357996569043286 0.1472158045151807 0  0.1619764829264572 0.126298308975886 0  0.1935640279204225 0.116654032325456 0  1.82457000000085 0.2346439024393236 0  0.8027657238591595 0.149277802568535 0  1.498563450727992 0.2632867809910664 0  0.2770405925201826 0.1924926016722167 0  0.470924801584011 0.09138612536042019 0  0.550693598792917 0.2898604497866635 0  0.381089831438127 0.3238078833671811 0  2.074516462495042 0.125705772324225 0  2.083599037046577 0.2769549245607841 0  0.2692296340100125 0.2210592970306522 0  0.7614733075682367 0.2839235561638241 0  1.536698221979284 0.1258192462655419 0  1.231809489345021 0.1282542717942667 0  1.054759157670174 0.1242749934189342 0  1.754535566851005 0.1223197024158991 0  1.90452621597739 0.1324728094649104 0  0.2672409321155211 0.178737994598723 0  1.254401531996246 0.2902808614622134 0  1.04350934597445 0.2986664252663559 0  0.0749710792305778 0.3208721925318313 0  0.5425289614095572 0.165152457827861 0  0.1663208394680799 0.2644065126118989 0  0.1471335176887868 0.2433864007787126 0  0.1345556779484054 0.219852318055334 0  0.131940483167677 0.1932967226753857 0  0.1941574795820069 0.2685534232066453 0  0.2226696214021025 0.1252682734732412 0  0.2193882214552426 0.2661718674478616 0  0.1396865053227576 0.1677617654469802 0  0.8749487631478475 0.295170577255529 0  1.424301820545763 0.1157348858866879 0  1.918515045506933 0.2902236143624367 0  1.744876807925144 0.306628844405037 0  0.2443979144126529 0.254353837216211 0  0.2569054246570621 0.2306780201523878 0  0.2632507216716993 0.2062296523407826 0  0.4609453431326088 0.3138128990490959 0  0.3578015395476809 0.08253318517696946 0  0.2529777826635333 0.155582948480283 0  0.1580369715200277 0.1487041474358234 0  0.652872088668587 0.3101079993636056 0  0.297147332491062 0.2558065812325378 0  0.6188247313471635 0.1101603945467571 0  0.8951149554961688 0.1123812542864208 0  1.592749166085722 0.2985190085719691 0  1.40420309431358 0.2992155383468256 0  1.649189110727275 0.1000387439201274 0  0.2301663900864273 0.1432830242131801 0  0.2064839406544439 0.1345771465164309 0  0.2548204572493643 0.1702022465417566 0  0.1606700828011604 0.2481621709908606 0  0.2605987457303776 0.1928909671966518 0  0.1826942838524941 0.2594610608897559 0  0.1456438338561037 0.2290651013631561 0  0.1387681034994896 0.2058679665896095 0  1.140902260384949 0.3081952438204152 0  2.123402621966431 0.2039515281261525 0  0.7272188829630218 0.1047469619375249 0  0.2060868819369127 0.2616331638469837 0  0.246763614216289 0.2411610007697902 0  0.1405961691450822 0.1819800466423126 0  1.149638048863541 0.08264492713269313 0  0.1809997740285721 0.1365020267363126 0  1.993198408221569 0.09755938404998035 0  0.2287111352430851 0.2547015941619741 0  0.3818716699056283 0.2060398770290832 0  0.39147508084147 0.2656155699545688 0  0.151201080877373 0.1608659990301362 0  0.0542521118046473 0.1382221876243976 0  0.06190301158313444 0.0685934933767465 0  1.317316039400266 0.1015983144534349 0  0.2176417279723976 0.1415790407114221 0  0.2401571300978209 0.1529210337009423 0  0.2618092962776011 0.3566662607419938 0  0.1941527094396574 0.1377969918002053 0  0.9590486261329707 0.3255353063371385 0  0.1708201090411339 0.1447474051814825 0  1.837592370686806 0.3302992722413595 0  0.3197015570210796 0.1212159119695666 0  0.4155281956943757 0.1409543952531078 0  0.0549491513262805 0.2307535706287103 0  0.1668210562270142 0.3605647861782867 0  0.2854688902460447 0.2093700809023571 0  2.013251581901814 0.3292746985146142 0  0.1192191106244758 0.2809901915857802 0  0.2487958366614321 0.04556523514103697 0  0.09061021186838321 0.2240174335271237 0  1.737143840576958 0.20912817770623 0  0.04515017012776967 0.2784708690411318 0  0.5347554646753627 0.08988970780599832 0  0.977104673723579 0.08241628541188413 0  0.336509991617897 0.2888965225844298 0  0.2569238041969055 0.2173711314485607 0  1.906541186051535 0.2125389476829634 0  0.1762338839607841 0.3102437166134606 0  1.449268841077636 0.201011295143529 0  0.8555371485878378 0.2099663446585434 0  1.837208236203613 0.07556229833764837 0  1.264402545318887 0.1992523923163096 0  1.068181074047183 0.2155119107017876 0  0.3158931250274742 0.3421721218291775 0  0.2731958384900449 0.2373435058667565 0  0.09875906484220501 0.1533097574901186 0  0.7355755433976705 0.2066339904079041 0  1.567440499207928 0.2049999999995983 0  1.329829828222916 0.3295825481537897 0  0.8214190147401245 0.07894167681990104 0  1.525459989258997 0.3394220200696043 0  0.1990897327079506 0.06300531675246424 0  0.244701762210989 0.3062404318132603 0  0.1033853772622983 0.3551443431224104 0  0.1178236825374896 0.07148041782551597 0  0.1558198999929474 0.04409380269139784 0  0.3389178979413869 0.198678920661321 0  0.310790717645908 0.2196004930752872 0  2.125022007676643 0.3402049371791425 0  2.130028889485561 0.06535501282233655 0  0.4821161335597635 0.1626909543876269 0  0.2838678108956019 0.1254276466262967 0  0.5062815929260498 0.2376271077316994 0  1.663059277092996 0.3422301118688678 0  1.82292665764828 0.1574809263836269 0  2.052538557905295 0.05717536030732174 0  0.3078251537889645 0.16056368457456 0  0.8108267070172145 0.3390047366820738 0  1.487254632568403 0.0703866281621833 0  0.155004430757041 0.2369517702015699 0  0.1725545045705267 0.2519594403466565 0  0.1445581653510352 0.2167994984574706 0  0.1420710285613199 0.1942747855116325 0  1.461861739291679 0.3471998553985149 0  0.2372128969196007 0.2453440460936858 0  0.1943665918892754 0.2580518465884657 0  0.2452139232912363 0.1629124725160763 0  0.2555786751481889 0.1825885041235872 0  2.14640473333793 0.2790222779730848 0  2.145589594789407 0.1282024626544199 0  0.1486651579751984 0.1726583296292201 0  0.550000000001476 0.3603327897285098 0  0.0505668771231032 0.3660023622363767 0  1.049999999997169 0.05217028468202135 0  1.244771793631775 0.05744029386223062 0  0.1356759337238615 0.1094447816941579 0  0.5872326411628903 0.2223148728195226 0  0.2168458206248643 0.2558159203714847 0  1.749999999998732 0.05166028789524129 0  0.2855257256666041 0.1763246086558152 0  1.92
[...]
<PointData  Vectors="f_22"> 
<DataArray  type="Float64"  Name="f_22"  NumberOfComponents="3" format="ascii">0.0000000000000000e+00 0.0000000000000000e+00 0.0000000000000000e+00  0.0000000000000000e+00 0.0000000000000000e+00 0.0000000000000000e+00  0.0000000000000000e+00 0.0000000000000000e+00 0.0000000000000000e+00  0.0000000000000000e+00 0.0000000000000000e+00 0.0000000000000000e+00  0.0000000000000000e+00 0.0000000000000000e+00 0.0000000000000000e+00  0.0000000000000000e+00 0.0000000000000000e+00 0.0000000000000000e+00  0.0000000000000000e+00 0.0000000000000000e+00 0.0000000000000000e+00  0.0000000000000000e+00 0.0000000000000000e+00 0.0000000000000000e+00  0.0000000000000000e+00 0.0000000000000000e+00 0.0000000000000000e+00  0.0000000000000000e+00 0.0000000000000000e+00 0.0000000000000000e+00  0.0000000000000000e+00 0.0000000000000000e+00 0.0000000000000000e+00  0.0000000000000000e+00 0.0000000000000000e+00 0.0000000000000000e+00  0.0000000000000000e+00 0.0000000000000000e+00 0.0000000000000000e+00  0.0000000000000000e+00 0.0000000000000000e+00 0.0000000000000000e+00  0.0000000000000000e+00 0.0000000000000000e+00 0.0000000000000000e+00  0.0000000000000000e+00 0.0000000000000000e+00 0.0000000000000000e+00  0.0000000000000000e+00 0.0000000000000000e+00 0.0000000000000000e+00  0.0000000000000000e+00 0.0000000000000000e+00 0.0000000000000000e+00  0.0000000000000000e+00 0.0000000000000000e+00 0.0000000000000000e+00  0.0000000000000000e+00 0.0000000000000000e+00 0.0000000000000000e+00  0.0000000000000000e+00 0.0000000000000000e+00 0.0000000000000000e+00  0.0000000000000000e+00 0.0000000000000000e+00 0.0000000000000000e+00  0.0000000000000000e+00 0.0000000000000000e+00 0.0000000000000000e+00  0.0000000000000000e+00 0.0000000000000000e+00 0.0000000000000000e+00  0.0000000000000000e+00 0.0000000000000000e+00 0.0000000000000000e+00  0.0000000000000000e+00 0.0000000000000000e+00 0.0000000000000000e+00  0.0000000000000000e+00 0.0000000000000000e+00 0.0000000000000000e+00  0.0000000000000000e+00 0.0000000000000000e+00 0.0000000000000000e+00  0.0000000000000000e+00 0.0000000000000000e+00 0.0000000000000000e+00  0.0000000000000000e+00 0.0000000000000000e+00 0.0000000000000000e+00  0.0000000000000000e+00 0.0000000000000000e+00 0.0000000000000000e+00  0.0000000000000000e+00 0.0000000000000000e+00 0.0000000000000000e+00  0.0000000000000000e+00 0.0000000000000000e+00 0.0000000000000000e+00  0.0000000000000000e+00 0.0000000000000000e+00 0.0000000000000000e+00  0.0000000000000000e+00 0.0000000000000000e+00 0.0000000000000000e+00  0.0000000000000000e+00 0.0000000000000000e+00 0.0000000000000000e+00  0.0000000000000000e+00 0.0000000000000000e+00 0.0000000000000000e+00  0.0000000000000000e+00 0.0000000000000000e+00 0.0000000000000000e+00  0.0000000000000000e+00 0.0000000000000000e+00 0.0000000000000000e+00  0.0000000000000000e+00 0.0000000000000000e+00 0.0000000000000000e+00  0.0000000000000000e+00 0.0000000000000000e+00 0.0000000000000000e+00  0.0000000000000000e+00 0.0000000000000000e+00 0.0000000000000000e+00  0.0000000000000000e+00 0.0000000000000000e+00 0.0000000000000000e+00  0.0000000000000000e+00 0.0000000000000000e+00 0.0000000000000000e+00  0.0000000000000000e+00 0.0000000000000000e+00 0.0000000000000000e+00  0.0000000000000000e+00 0.0000000000000000e+00 0.0000000000000000e+00  0.0000000000000000e+00 0.0000000000000000e+00 0.0000000000000000e+00  0.0000000000000000e+00 0.0000000000000000e+00 0.0000000000000000e+00  0.0000000000000000e+00 0.0000000000000000e+00 0.0000000000000000e+00  0.0000000000000000e+00 0.0000000000000000e+00 0.0000000000000000e+00  0.0000000000000000e+00 0.0000000000000000e+00 0.0000000000000000e+00  0.0000000000000000e+00 0.0000000000000000e+00 0.0000000000000000e+00  0.0000000000000000e+00 0.0000000000000000e+00 0.0000000000000000e+00  0.0000000000000000e+00 0.0000000000000000e+00 0.0000000000000000e+00  0.0000000000000000e+00 0.0000000000000000e+00 0.0000000000000000e+00  0.0000000000000000e+00 0.0000000000000000e+00 0.0000000000000000e+00  0.0000000000000000e+00 0.0000000000000000e+00 0.0000000000000000e+00  1.1168585956660015e+00 -1.2592369767821824e-04 0.0000000000000000e+00  1.2261719536829276e+00 -1.1824210968062962e-04 0.0000000000000000e+00  1.2261324863913581e+00 1.5836719369101175e-05 0.0000000000000000e+00  1.1171117184935482e+00 3.2861807363040399e-06 0.0000000000000000e+00  0.0000000000000000e+00 0.0000000000000000e+00 0.0000000000000000e+00  0.0000000000000000e+00 0.0000000000000000e+00 0.0000000000000000e+00  0.0000000000000000e+00 0.0000000000000000e+00 0.0000000000000000e+00  0.0000000000000000e+00 0.0000000000000000e+00 0.0000000000000000e+00  0.0000000000000000e+00 0.0000000000000000e+00 0.0000000000000000e+00  0.0000000000000000e+00 0.0000000000000000e+00 0.0000000000000000e+00  0.0000000000000000e+00 0.0000000000000000e+00 0.0000000000000000e+00  0.0000000000000000e+00 0.0000000000000000e+00 0.0000000000000000e+00  0.0000000000000000e+00 0.0000000000000000e+00 0.0000000000000000e+00  0.0000000000000000e+00 0.0000000000000000e+00 0.0000000000000000e+00  0.0000000000000000e+00 0.0000000000000000e+00 0.0000000000000000e+00  0.0000000000000000e+00 0.0000000000000000e+00 0.0000000000000000e+00  0.0000000000000000e+00 0.0000000000000000e+00 0.0000000000000000e+00  0.0000000000000000e+00 0.0000000000000000e+00 0.0000000000000000e+00  0.0000000000000000e+00 0.0000000000000000e+00 0.0000000000000000e+00  0.0000000000000000e+00 0.0000000000000000e+00 0.0000000000000000e+00  0.0000000000000000e+00 0.0000000000000000e+00 0.0000000000000000e+00  0.0000000000000000e+00 0.0000000000000000e+00 0.0000000000000000e+00  0.0000000000000000e+00 0.0000000000000000e+00 0.0000000000000000e+00  0.0000000000000000e+00 0.0000000000000000e+00 0.0000000000000000e+00  0.0000000000000000e+00 0.0000000000000000e+00 0.0000000000000000e+00  9.6000004986193077e-01 0.0000000000000000e+00 0.0000000000000000e+00  1.4400000747942183e+00 0.0000000000000000e+00 0.0000000000000000e+00  1.4400000747967967e+00 0.0000000000000000e+00 0.0000000000000000e+00  9.6000004986557019e-01 0.0000000000000000e+00 0.0000000000000000e+00  -3.7415823326607311e-01 9.8205012194647959e-02 0.0000000000000000e+00  3.7372703236158528e-01 -1.0881011056178873e-01 0.0000000000000000e+00  1.7793126758648761e-03 -6.5394598388756942e-02 0.0000000000000000e+00  1.8791719606634858e+00 -9.4494636927349718e-02 0.0000000000000000e+00  1.9396177929812908e+00 1.0027796033291408e-01 0.0000000000000000e+00  1.4592147547895706e+00 2.1755622729637561e-01 0.0000000000000000e+00  1.3139414653750427e+00 3.5160104388686847e-01 0.0000000000000000e+00  1.3311558739787246e+00 2.5814569854492092e-01 0.0000000000000000e+00  1.3058472423839922e+00 -7.4970191922710788e-02 0.0000000000000000e+00  1.2643966781544040e+00 -3.2906021238731920e-01 0.0000000000000000e+00  1.4126775424160904e+00 -3.8483325790412393e-01 0.0000000000000000e+00  -2.2034805770914731e-01 -1.1024740741171035e-01 0.0000000000000000e+00  1.2274482535399269e+00 -4.8361916288807056e-05 0.0000000000000000e+00  4.5254981534584078e-02 -1.1775385842846978e-01 0.0000000000000000e+00  -1.2423698504646714e-01 3.1372369963292471e-02 0.0000000000000000e+00  7.1484332963399466e-01 -2.9391584698408985e-01 0.0000000000000000e+00  2.6034010290794990e-01 5.1065748570262803e-02 0.0000000000000000e+00  1.8917314231579783e+00 -2.6299897106429554e-01 0.0000000000000000e+00  1.2236277763419889e+00 -9.6137987080390334e-03 0.0000000000000000e+00  1.1756691178433678e+00 4.0770369320260250e-02 0.0000000000000000e+00  1.2897531304858463e+00 9.4129128534776410e-02 0.0000000000000000e+00  1.7146726976581570e+00 2.1080932872376501e-01 0.0000000000000000e+00  1.3743843649905652e+00 -6.2506801939496537e-02 0.0000000000000000e+00  8.5244579280426969e-01 -7.5210912048982267e-02 0.0000000000000000e+00  1.9925111768850641e+00 4.4319697764706750e-01 0.0000000000000000e+00  1.8598238701507246e+00 6.4436985883394116e-01 0.0000000000000000e+00  1.4896610208871428e+00 7.7265304677848612e-01 0.0000000000000000e+00  1.1447207692856414e+00 5.5742934468725014e-01 0.0000000000000000e+00  9.3843398465988881e-01 1.0036563185467157e-01 0.0000000000000000e+00  9.8453384137633304e-01 -4.0400041870909120e-01 0.0000000000000000e+00  1.2908024528056403e+00 -7.0659889304891887e-01 0.0000000000000000e+00  1.6485864741351166e+00 -7.2795541553124099e-01 0.0000000000000000e+00  1.9056191941007294e+00 -5.4372027221703190e-01 0.0000000000000000e+00  1.2274162172506944e+00 -9.3938655683371191e-04 0.0000000000000000e+00  1.7752371375617573e+00 2.6941201110507917e-01 0.0000000000000000e+00  1.2995941620362439e+00 -1.2616070663081281e-02 0.0000000000000000e+00  -1.2785036630799895e-01 -9.0537179880148394e-02 0.0000000000000000e+00  1.7443518111121026e+00 3.1441923217945428e-01 0.0000000000000000e+00  1.9236388736241925e+00 -3.6814601392053481e-01 0.0000000000000000e+00  1.8157374362526992e+00 -4.4170424793896594e-02 0.0000000000000000e+00  1.2149378477988069e+00 -2.0931496686246040e-05 0.0000000000000000e+00  1.2193580631268857e+00 1.9880817680920585e-05 0.0000000000000000e+00  -9.5634228957292317e-02 5.9525069825381152e-02 0.0000000000000000e+00  1.4267788698185635e+00 1.6695410984008799e-02 0.0000000000000000e+00  1.1917400008367569e+00 -3.4750106475006392e-03 0.0000000000000000e+00  1.3976365942778015e+00 -3.2294900496478457e-02 0.0000000000000000e+00  1.3489730289510213e+00 -7.6188466674324939e-02 0.0000000000000000e+00  1.2107722587288732e+00 -9.3870060939630685e-04 0.0000000000000000e+00  1.2188328339500676e+00 -1.5500491855218530e-04 0.0000000000000000e+00  -7.2850184364306278e-02 -1.3615584160656397e-01 0.0000000000000000e+00  1.2915786964911657e+00 9.3858174670180664e-02 0.0000000000000000e+00  1.3945692774004974e+00 -3.9927021864421881e-02 0.0000000000000000e+00  1.0781783162374512e+00 1.7068722865316022e-01 0.0000000000000000e+00  5.7576527585888149e-01 3.5180990758030628e-01 0.0000000000000000e+00  1.7392012365996572e+00 8.5733463594473991e-01 0.0000000000000000e+00  1.2306681108730171e+00 9.4045279953549821e-01 0.0000000000000000e+00  7.5797435953950210e-01 5.0710131712539552e-01 0.0000000000000000e+00  6.4520348777662351e-01 -2.0234934768977267e-01 0.0000000000000000e+00  2.0068902324170392e+00 5.9760578427967415e-01 0.0000000000000000e+00  1.8985034923657047e+00 -3.2087216877540192e-01 0.0000000000000000e+00  1.4746548691176249e+00 2.1110973498028551e-01 0.0000000000000000e+00  9.6552408855462268e-01 -8.0497224662709332e-01 0.0000000000000000e+00  1.4531167134299801e+00 1.7095966110848022e-02 0.0000000000000000e+00  1.2118478120184002e+00 -2.7549937281398595e-02 0.0000000000000000e+00  1.2096501540161315e+00 -2.5073638937106143e-05 0.0000000000000000e+00  1.1879556973371690e+00 -1.5513779840734326e-03 0.0000000000000000e+00  2.6014149539163356e-01 4.6588615102807172e-02 0.0000000000000000e+00  -6.7439644189379977e-02 9.8259141841608832e-02 0.0000000000000000e+00  -6.1864680363147892e-02 -1.0682756610172885e-04 0.0000000000000000e+00  1.8865457854959691e+00 -1.1558951680002776e-01 0.0000000000000000e+00  1.9112947162688494e+00 6.6482715190293917e-02 0.0000000000000000e+00  -1.3414951172527374e-02 -8.8004673306428693e-02 0.0000000000000000e+00  1.5106103460104532e+00 -1.0487632751032814e+00 0.0000000000000000e+00  1.4665048387885324e+00 -2.7733014333950701e-01 0.0000000000000000e+00  3.9784892059066423e-01 4.1989214482390166e-03 0.0000000000000000e+00  1.5435959703040190e+00 6.0817356844663370e-02 0.0000000000000000e+00  1.3290552689079558e+00 1.0972541219664423e-02 0.0000000000000000e+00  1.2057564445597218e+00 6.1879412007298839e-03 0.0000000000000000e+00  1.2644135612992575e+00 3.7088219151613700e-03 0.0000000000000000e+00  1.1774648576616857e+00 1.6911822244700940e-03 0.0000000000000000e+00  3.9921997231407774e-01 -4.0673404992153828e-02 0.0000000000000000e+00  1.6805770248126373e+00 -3.4992891070059101e-01 0.0000000000000000e+00  -5.9778704465423924e-02 -1.1713111451796671e-01 0.0000000000000000e+00  1.5053263828028740e+00 1.1117820685299173e+00 0.0000000000000000e+00  -4.5637062493342033e-02 -7.1548660919940929e-02 0.0000000000000000e+00  1.8746857809155353e+00 7.6875461647977572e-01 0.0000000000000000e+00  8.3821848098576646e-01 9.1740011435948410e-01 0.0000000000000000e+00  4.2879868057627241e-01 1.9240009463196853e-01 0.0000000000000000e+00  1.1742661993798695e+00 9.1268047206026673e-02 0.0000000000000000e+00  1.2274897593804179e+00 -1.9171194454963162e-05 0.0000000000000000e+00  1.5904000493020451e+00 1.8394709630011688e-01 0.0000000000000000e+00  1.3749564817398232e+00 2.4720879758002176e-01 0.0000000000000000e+00  -5.1415273760090835e-02 8.2980222957756838e-02 0.0000000000000000e+00  5.9574068930577595e-01 -6.3584899460304745e-01 0.0000000000000000e+00  1.0826534949755737e+00 -3.8944686856072989e-02 0.0000000000000000e+00  1.9326074216243692e+00 -8.0809277038862459e-01 0.0000000000000000e+00  1.1725182673858887e+00 -1.4594226763884296e-05 0.0000000000000000e+00  2.8791615553507277e-01 2.7470605684475517e-02 0.0000000000000000e+00  -4.7236384251824565e-01 -1.1503107991957287e-01 0.0000000000000000e+00  8.5452336342457202e-01 -8.1024319522331884e-02 0.0000000000000000e+00  1.1638323433451230e+00 -1.0928614035789854e+00 0.0000000000000000e+00  1.3195070614440392e+00 -1.3650225066476843e-01 0.0000000000000000e+00  8.8418084249526807e-01 -1.1322682204055484e-01 0.0000000000000000e+00  1.2078069616793836e+00 -4.4222194315607991e-02 0.0000000000000000e+00  6.7548820969185364e-01 -6.4561619396400344e-02 0.0000000000000000e+00  -9.1131189920343261e-03 -5.6293623669155794e-02 0.0000000000000000e+00  1.4039773398057269e+00 8.0358565000586510e-02 0.0000000000000000e+00  1.7707821460027346e+00 -5.1948867332053861e-01 0.0000000000000000e+00  1.0900401068147196e+00 -5.3969128474465826e-02 0.0000000000000000e+00  1.7644891817110557e+00 -1.0047619848537261e+00 0.0000000000000000e+00  1.1064689846384665e+00 -6.9160679611791047e-05 0.0000000000000000e+00  1.5705800934439009e+00 -3.5282063865537339e-02 0.0000000000000000e+00  1.1365580990200697e+00 1.8229681843872833e-01 0.0000000000000000e+00  1.4138311779088775e+00 8.6801146746088811e-02 0.0000000000000000e+00  1.0314256250844442e+00 1.6286530510467986e-01 0.0000000000000000e+00  -1.7605215861200826e-01 -2.1209023815615916e-02 0.0000000000000000e+00  1.1117370156694226e+00 5.4052707752384385e-05 0.0000000000000000e+00  1.3613933526653483e+00 4.3475972552615982e-01 0.0000000000000000e+00  1.3603304084573866e+00 -8.8432535697465273e-02 0.0000000000000000e+00  1.2699788558572340e+00 1.6311411524126843e-01 0.0000000000000000e+00  1.2270428688588155e+00 -3.2649491473024294e-03 0.0000000000000000e+00  1.3035362708471427e+00 1.1587765212849466e-01 0.0000000000000000e+00  1.5246193093873859e+00 2.1814300406293236e-01 0.0000000000000000e+00  9.6781333015328952e-01 -8.2620587870847834e-02 0.0000000000000000e+00  1.8246366447863276e+00 -2.5947949352446549e-02 0.0000000000000000e+00  -4.6105303253369381e-02 6.3662665868807533e-02 0.0000000000000000e+00  1.2276018277686158e+00 -2.7087968844637930e-04 0.0000000000000000e+00  1.5754929388145746e+00 4.0776985800864041e-01 0.0000000000000000e+00  1.1784686785998668e+00 3.7274603000332085e-02 0.0000000000000000e+00  1.2512519461479932e+00 1.4683543639633201e-01 0.0000000000000000e+00  1.0832501457915673e+00 -1.3560141354043538e-04 0.0000000000000000e+00  1.1890435475046102e+00 -6.2145423326378436e-02 0.0000000000000000e+00  1.4587969420769729e+00 -5.3266702856190735e-02 0.0000000000000000e+00  1.6400203017373847e+00 2.4170836196776790e-02 0.0000000000000000e+00  -3.7780368883825459e-02 7.2228380190955746e-02 0.0000000000000000e+00  1.2694085143342602e+00 -3.2305757587049133e-01 0.0000000000000000e+00  9.3528268923682401e-01 -2.1983170661478352e-01 0.0000000000000000e+00  1.2196382275019046e+00 -2.2627385285879070e-02 0.0000000000000000e+00  1.0949023273723106e+00 2.4610469321997543e-02 0.0000000000000000e+00  9.3629596971320872e-01 1.0077288485340818e-01 0.0000000000000000e+00  1.0405602845914257e+00 1.0834834644052679e-02 0.0000000000000000e+00  1.3829585322581661e+00 -2.2800237157339992e-01 0.0000000000000000e+00  1.8875433319789072e+00 2.2601792851694122e-01 0.0000000000000000e+00  8.4649542248795651e-01 1.3989353016102107e-01 0.0000000000000000e+00  1.0628332104727594e+00 -2.4249272872551988e-01 0.0000000000000000e+00  9.5973165414321626e-01 -1.6065594003208680e-01 0.0000000000000000e+00  -3.5380930176273651e-01 -1.3922063875677906e-01 0.0000000000000000e+00  -2.2401486298412376e-01 -3.5652093096903606e-02 0.0000000000000000e+00  1.0472821018485550e+00 2.4251907812072286e-05 0.0000000000000000e+00  1.0143670965876705e+00 -7.8460063242153963e-05 0.0000000000000000e+00  6.6752332189178643e-01 4.1491512214647541e-01 0.0000000000000000e+00  1.4103832536373713e+00 -8.3186147861897902e-02 0.0000000000000000e+00  3.8997102427464175e-01 1.3758209987108799e-01 0.0000000000000000e+00  1.0383488280609678e+00 -2.5228565591957791e-03 0.0000000000000000e+00  1.2252217344249710e+00 -7.7461699104047711e-04 0.0000000000000000e+00  9.4294982445844844e-01 -2.8044102649364728e-05 0.0000000000000000e+00  8.8119985999512790e-02 -1.3706003694534974e-01 0.0000000000000000e+00  9.1908863940269525e-01 3.8829590475012325e-02 0.0000000000000000e+00  1.0487922166093746e+00 -7.3337115376159712e-04 0.0000000000000000e+00  1.0877679009398473e+00 1.1289048965166784e+00 0.0000000000000000e+00  1.6547297283239435e+00 9.5507311720670884e-01 0.0000000000000000e+00  4.4852180262527508e-01 6.4343886846339138e-01 0.0000000000000000e+00  3.0516406479005032e-01 -2.5696598737512172e-01 0.0000000000000000e+00  9.6424169440703633e-01 1.1397086885171924e-02 0.0000000000000000e+00  -3.0336088723017414e-02 5.4126227021436740e-02 0.0000000000000000e+00  1.3950659538767842e+00 3.6726754184901450e-01 0.0000000000000000e+00  -6.2871444299003085e-02 -7.7320104228739917e-02 0.0000000000000000e+00  -3.8601665882280395e-02 -9.3533647773935955e-02 0.0000000000000000e+00  1.2183316671320501e+00 2.7565927687278139e-05 0.0000000000000000e+00  1.2166470209400941e+00 -8.4161680109609576e-05 0.0000000000000000e+00  7.4556954309200263e-01 -9.9378105295236852e-01 0.0000000000000000e+00  1.1532608255470984e+00 -1.6321918849707837e-01 0.0000000000000000e+00  6.1170693434995982e-01 5.2641592981765128e-02 0.0000000000000000e+00  6.1314447444395148e-01 -4.0143772264950028e-02 0.0000000000000000e+00  7.9286178974517896e-01 -3.8458537125554096e-02 0.0000000000000000e+00  1.3821529425749888e+00 -4.7829720387318431e-01 0.0000000000000000e+00  7.5387063513646879e-01 -1.9823909066394335e-01 0.0000000000000000e+00  4.5111145392243968e-01 2.6808791719740727e-02 0.0000000000000000e+00  8.8547570222438743e-01 -2.4670747509015844e-04 0.0000000000000000e+00  -9.3038013948996912e-02 -1.3946992032507755e-01 0.0000000000000000e+00  1.0116505557519386e+00 7.1509976154911319e-06 0.0000000000000000e+00  1.5399343593088342e+00 1.7384801827061502e-01 0.0000000000000000e+00  9.4507852985507323e-01 3.8180262134730708e-03 0.0000000000000000e+00  1.7786203398359286e+00 1.4060031106017881e-01 0.0000000000000000e+00  1.4587436505526921e+00 -1.3567977534663923e-02 0.0000000000000000e+00  1.5700338340322295e+00 5.8326864062389483e-01 0.0000000000000000e+00  8.3103460063791046e-01 -1.4676060412967503e-02 0.0000000000000000e+00  1.2216853954564739e+00 -1.8968167098041165e-03 0.0000000000000000e+00  1.2257963240307628e+00 -5.8210621082013672e-03 0.0000000000000000e+00  1.2174455658901724e+00 -2.4002863749542518e-03 0.0000000000000000e+00  1.2249634349545893e+00 -1.9046514077863080e-03 0.0000000000000000e+00  1.1977599102735292e+00 -4.7052434446158442e-04 0.0000000000000000e+00  1.3088012035916066e+00 -3.7148899151131544e-02 0.0000000000000000e+00  1.2790411901922565e+00 -6.3082459469905358e-02 0.0000000000000000e+00  1.2256080513677854e+00 -8.9297413937789644e-02 0.0000000000000000e+00  1.2776841869380928e+00 -4.9436947593026921e-02 0.0000000000000000e+00  1.18452137731393