<?xml version="1.0"?>
<VTKFile type="UnstructuredGrid"  version="0.1"  >
<UnstructuredGrid>
<Piece  NumberOfPoints="3852" NumberOfCells="7360">
<Points>
<DataArray  type="Float64"  NumberOfComponents="3"  format="ascii">0 0 0  0 0.41 0  2.2 0.41 0  2.2 0 0  0.2 0.15 0  0.15 0.2 0  0.2 0.25 0  0.25 0.2 0  0.2097545161007899 0.1509607359798352 0  0.219134171618224 0.153806023374423 0  0.2277785116509268 0.1584265193848371 0  0.2353553390592504 0.1646446609405956 0  0.2415734806150793 0.1722214883489481 0  0.2461939766255306 0.1808658283816641 0  0.249039264020151 0.1902454838991403 0  0.2490392640201666 0.2097545161007811 0  0.2461939766255869 0.2191341716182 0  0.2415734806151802 0.2277785116509009 0  0.2353553390594108 0.235355339059244 0  0.2277785116510524 0.2415734806150789 0  0.2191341716182962 0.2461939766255471 0  0.209754516100834 0.2490392640201561 0  0.1902454838992189 0.2490392640201666 0  0.1808658283818 0.2461939766255869 0  0.1722214883490991 0.2415734806151802 0  0.164644660940756 0.2353553390594108 0  0.1584265193849211 0.2277785116510524 0  0.1538060233744529 0.2191341716182962 0  0.150960735979844 0.209754516100834 0  0.1509607359798352 0.1902454838992101 0  0.153806023374423 0.180865828381776 0  0.1584265193848371 0.1722214883490732 0  0.1646446609405956 0.1646446609407496 0  0.1722214883489481 0.1584265193849207 0  0.1808658283816641 0.1538060233744694 0  0.1902454838991403 0.150960735979849 0  0.09999999999980318 0 0  0.1999999999996354 0 0  0.2999999999994593 0 0  0.3999999999991452 0 0  0.4999999999988309 0 0  0.599999999998495 0 0  0.6999999999982023 0 0  0.7999999999979096 0 0  0.8999999999975735 0 0  0.9999999999972848 0 0  1.099999999997053 0 0  1.199999999997309 0 0  1.299999999997566 0 0  1.399999999997821 0 0  1.49999999999809 0 0  1.599999999998377 0 0  1.69999999999859 0 0  1.799999999998877 0 0  1.899999999999145 0 0  1.999999999999386 0 0  2.099999999999693 0 0  2.2 0.08199999999981657 0  2.2 0.1639999999995688 0  2.2 0.2459999999995603 0  2.2 0.327999999999785 0  2.100000000000048 0.41 0  2.000000000000269 0.41 0  1.900000000000422 0.41 0  1.800000000000679 0.41 0  1.700000000000931 0.41 0  1.600000000001326 0.41 0  1.500000000001665 0.41 0  1.400000000002032 0.41 0  1.300000000002395 0.41 0  1.200000000002644 0.41 0  1.100000000002865 0.41 0  1.000000000002617 0.41 0  0.900000000002368 0.41 0  0.8000000000021192 0.41 0  0.7000000000018587 0.41 0  0.6000000000015786 0.41 0  0.5000000000013736 0.41 0  0.4000000000010933 0.41 0  0.3000000000008329 0.41 0  0.2000000000005997 0.41 0  0.1000000000003003 0.41 0  0 0.3280000000001975 0  0 0.2460000000004372 0  0 0.1640000000004437 0  0 0.08200000000021695 0  0.439039350479032 0.2235433210862024 0  0.3557293424662716 0.1539377961885917 0  0.3450132387946972 0.2399891502764809 0  0.2900756359792848 0.08507884665974728 0  0.2884413411145515 0.3059878288466324 0  0.2102195502178943 0.3385267178242456 0  0.137328909169326 0.3152847369018352 0  0.08490385663776813 0.2628976192695439 0  0.08063302347471875 0.188368977740952 0  0.1005937615311739 0.1162460982751979 0  0.1621860847198582 0.08598327887900903 0  0.3012864586130264 0.1926027915888804 0  1.999140000000448 0.2049999999995642 0  0.2742354912953259 0.1572259708446958 0  0.2871471664627305 0.2264358039321654 0  0.6542851578645765 0.1981889790488746 0  0.2651366296338276 0.2534562504463119 0  0.2371819217149928 0.0977949043027586 0  1.651678197071202 0.2145186615851206 0  1.349674714201118 0.2086119645070391 0  0.9627539291831038 0.2056711800839285 0  0.2360880502985623 0.2733043913425156 0  1.159884231859056 0.2050429640239795 0  0.2502927927237266 0.1358797630898622 0  0.2080582834123368 0.2835355213895352 0  0.1805439632603489 0.278338480667804 0  0.1486243506827335 0.2626014098227327 0  0.1266658889266303 0.2392753516137401 0  0.1179814841582247 0.2069380844236527 0  0.1225167704961566 0.1764957192948648 0  0.1357996569043286 0.1472158045151807 0  0.1619764829264572 0.126298308975886 0  0.1935640279204225 0.116654032325456 0  1.82457000000085 0.2346439024393236 0  0.8027657238591595 0.149277802568535 0  1.498563450727992 0.2632867809910664 0  0.2770405925201826 0.1924926016722167 0  0.470924801584011 0.09138612536042019 0  0.550693598792917 0.2898604497866635 0  0.381089831438127 0.3238078833671811 0  2.074516462495042 0.125705772324225 0  2.083599037046577 0.2769549245607841 0  0.2692296340100125 0.2210592970306522 0  0.7614733075682367 0.2839235561638241 0  1.536698221979284 0.1258192462655419 0  1.231809489345021 0.1282542717942667 0  1.054759157670174 0.1242749934189342 0  1.754535566851005 0.1223197024158991 0  1.90452621597739 0.1324728094649104 0  0.2672409321155211 0.178737994598723 0  1.254401531996246 0.2902808614622134 0  1.04350934597445 0.2986664252663559 0  0.0749710792305778 0.3208721925318313 0  0.5425289614095572 0.165152457827861 0  0.1663208394680799 0.2644065126118989 0  0.1471335176887868 0.2433864007787126 0  0.1345556779484054 0.219852318055334 0  0.131940483167677 0.1932967226753857 0  0.1941574795820069 0.2685534232066453 0  0.2226696214021025 0.1252682734732412 0  0.2193882214552426 0.2661718674478616 0  0.1396865053227576 0.1677617654469802 0  0.8749487631478475 0.295170577255529 0  1.424301820545763 0.1157348858866879 0  1.918515045506933 0.2902236143624367 0  1.744876807925144 0.306628844405037 0  0.2443979144126529 0.254353837216211 0  0.2569054246570621 0.2306780201523878 0  0.2632507216716993 0.2062296523407826 0  0.4609453431326088 0.3138128990490959 0  0.3578015395476809 0.08253318517696946 0  0.2529777826635333 0.155582948480283 0  0.1580369715200277 0.1487041474358234 0  0.652872088668587 0.3101079993636056 0  0.297147332491062 0.2558065812325378 0  0.6188247313471635 0.1101603945467571 0  0.8951149554961688 0.1123812542864208 0  1.592749166085722 0.2985190085719691 0  1.40420309431358 0.2992155383468256 0  1.649189110727275 0.1000387439201274 0  0.2301663900864273 0.1432830242131801 0  0.2064839406544439 0.1345771465164309 0  0.2548204572493643 0.1702022465417566 0  0.1606700828011604 0.2481621709908606 0  0.2605987457303776 0.1928909671966518 0  0.1826942838524941 0.2594610608897559 0  0.1456438338561037 0.2290651013631561 0  0.1387681034994896 0.2058679665896095 0  1.140902260384949 0.3081952438204152 0  2.123402621966431 0.2039515281261525 0  0.7272188829630218 0.1047469619375249 0  0.2060868819369127 0.2616331638469837 0  0.246763614216289 0.2411610007697902 0  0.1405961691450822 0.1819800466423126 0  1.149638048863541 0.08264492713269313 0  0.1809997740285721 0.1365020267363126 0  1.993198408221569 0.09755938404998035 0  0.2287111352430851 0.2547015941619741 0  0.3818716699056283 0.2060398770290832 0  0.39147508084147 0.2656155699545688 0  0.151201080877373 0.1608659990301362 0  0.0542521118046473 0.1382221876243976 0  0.06190301158313444 0.0685934933767465 0  1.317316039400266 0.1015983144534349 0  0.2176417279723976 0.1415790407114221 0  0.2401571300978209 0.1529210337009423 0  0.2618092962776011 0.3566662607419938 0  0.1941527094396574 0.1377969918002053 0  0.9590486261329707 0.3255353063371385 0  0.1708201090411339 0.1447474051814825 0  1.837592370686806 0.3302992722413595 0  0.3197015570210796 0.1212159119695666 0  0.4155281956943757 0.1409543952531078 0  0.0549491513262805 0.2307535706287103 0  0.1668210562270142 0.3605647861782867 0  0.2854688902460447 0.2093700809023571 0  2.013251581901814 0.3292746985146142 0  0.1192191106244758 0.2809901915857802 0  0.2487958366614321 0.04556523514103697 0  0.09061021186838321 0.2240174335271237 0  1.737143840576958 0.20912817770623 0  0.04515017012776967 0.2784708690411318 0  0.5347554646753627 0.08988970780599832 0  0.977104673723579 0.08241628541188413 0  0.336509991617897 0.2888965225844298 0  0.2569238041969055 0.2173711314485607 0  1.906541186051535 0.2125389476829634 0  0.1762338839607841 0.3102437166134606 0  1.449268841077636 0.201011295143529 0  0.8555371485878378 0.2099663446585434 0  1.837208236203613 0.07556229833764837 0  1.264402545318887 0.1992523923163096 0  1.068181074047183 0.2155119107017876 0  0.3158931250274742 0.3421721218291775 0  0.2731958384900449 0.2373435058667565 0  0.09875906484220501 0.1533097574901186 0  0.7355755433976705 0.2066339904079041 0  1.567440499207928 0.2049999999995983 0  1.329829828222916 0.3295825481537897 0  0.8214190147401245 0.07894167681990104 0  1.525459989258997 0.3394220200696043 0  0.1990897327079506 0.06300531675246424 0  0.244701762210989 0.3062404318132603 0  0.1033853772622983 0.3551443431224104 0  0.1178236825374896 0.07148041782551597 0  0.1558198999929474 0.04409380269139784 0  0.3389178979413869 0.198678920661321 0  0.310790717645908 0.2196004930752872 0  2.125022007676643 0.3402049371791425 0  2.130028889485561 0.06535501282233655 0  0.4821161335597635 0.1626909543876269 0  0.2838678108956019 0.1254276466262967 0  0.5062815929260498 0.2376271077316994 0  1.663059277092996 0.3422301118688678 0  1.82292665764828 0.1574809263836269 0  2.052538557905295 0.05717536030732174 0  0.3078251537889645 0.16056368457456 0  0.8108267070172145 0.3390047366820738 0  1.487254632568403 0.0703866281621833 0  0.155004430757041 0.2369517702015699 0  0.1725545045705267 0.2519594403466565 0  0.1445581653510352 0.2167994984574706 0  0.1420710285613199 0.1942747855116325 0  1.461861739291679 0.3471998553985149 0  0.2372128969196007 0.2453440460936858 0  0.1943665918892754 0.2580518465884657 0  0.2452139232912363 0.1629124725160763 0  0.2555786751481889 0.1825885041235872 0  2.14640473333793 0.2790222779730848 0  2.145589594789407 0.1282024626544199 0  0.1486651579751984 0.1726583296292201 0  0.550000000001476 0.3603327897285098 0  0.0505668771231032 0.3660023622363767 0  1.049999999997169 0.05217028468202135 0  1.244771793631775 0.05744029386223062 0  0.1356759337238615 0.1094447816941579 0  0.5872326411628903 0.2223148728195226 0  0.2168458206248643 0.2558159203714847 0  1.749999999998732 0.05166028789524129 0  0.2855257256666041 0.1763246086558152 0  1.92
[...]
<PointData  Vectors="f_22"> 
<DataArray  type="Float64"  Name="f_22"  NumberOfComponents="3" format="ascii">0.0000000000000000e+00 0.0000000000000000e+00 0.0000000000000000e+00  0.0000000000000000e+00 0.0000000000000000e+00 0.0000000000000000e+00  0.0000000000000000e+00 0.0000000000000000e+00 0.0000000000000000e+00  0.0000000000000000e+00 0.0000000000000000e+00 0.0000000000000000e+00  0.0000000000000000e+00 0.0000000000000000e+00 0.0000000000000000e+00  0.0000000000000000e+00 0.0000000000000000e+00 0.0000000000000000e+00  0.0000000000000000e+00 0.0000000000000000e+00 0.0000000000000000e+00  0.0000000000000000e+00 0.0000000000000000e+00 0.0000000000000000e+00  0.0000000000000000e+00 0.0000000000000000e+00 0.0000000000000000e+00  0.0000000000000000e+00 0.0000000000000000e+00 0.0000000000000000e+00  0.0000000000000000e+00 0.0000000000000000e+00 0.0000000000000000e+00  0.0000000000000000e+00 0.0000000000000000e+00 0.0000000000000000e+00  0.0000000000000000e+00 0.0000000000000000e+00 0.0000000000000000e+00  0.0000000000000000e+00 0.0000000000000000e+00 0.0000000000000000e+00  0.0000000000000000e+00 0.0000000000000000e+00 0.0000000000000000e+00  0.0000000000000000e+00 0.0000000000000000e+00 0.0000000000000000e+00  0.0000000000000000e+00 0.0000000000000000e+00 0.0000000000000000e+00  0.0000000000000000e+00 0.0000000000000000e+00 0.0000000000000000e+00  0.0000000000000000e+00 0.0000000000000000e+00 0.0000000000000000e+00  0.0000000000000000e+00 0.0000000000000000e+00 0.0000000000000000e+00  0.0000000000000000e+00 0.0000000000000000e+00 0.0000000000000000e+00  0.0000000000000000e+00 0.0000000000000000e+00 0.0000000000000000e+00  0.0000000000000000e+00 0.0000000000000000e+00 0.0000000000000000e+00  0.0000000000000000e+00 0.0000000000000000e+00 0.0000000000000000e+00  0.0000000000000000e+00 0.0000000000000000e+00 0.0000000000000000e+00  0.0000000000000000e+00 0.0000000000000000e+00 0.0000000000000000e+00  0.0000000000000000e+00 0.0000000000000000e+00 0.0000000000000000e+00  0.0000000000000000e+00 0.0000000000000000e+00 0.0000000000000000e+00  0.0000000000000000e+00 0.0000000000000000e+00 0.0000000000000000e+00  0.0000000000000000e+00 0.0000000000000000e+00 0.0000000000000000e+00  0.0000000000000000e+00 0.0000000000000000e+00 0.0000000000000000e+00  0.0000000000000000e+00 0.0000000000000000e+00 0.0000000000000000e+00  0.0000000000000000e+00 0.0000000000000000e+00 0.0000000000000000e+00  0.0000000000000000e+00 0.0000000000000000e+00 0.0000000000000000e+00  0.0000000000000000e+00 0.0000000000000000e+00 0.0000000000000000e+00  0.0000000000000000e+00 0.0000000000000000e+00 0.0000000000000000e+00  0.0000000000000000e+00 0.0000000000000000e+00 0.0000000000000000e+00  0.0000000000000000e+00 0.0000000000000000e+00 0.0000000000000000e+00  0.0000000000000000e+00 0.0000000000000000e+00 0.0000000000000000e+00  0.0000000000000000e+00 0.0000000000000000e+00 0.0000000000000000e+00  0.0000000000000000e+00 0.0000000000000000e+00 0.0000000000000000e+00  0.0000000000000000e+00 0.0000000000000000e+00 0.0000000000000000e+00  0.0000000000000000e+00 0.0000000000000000e+00 0.0000000000000000e+00  0.0000000000000000e+00 0.0000000000000000e+00 0.0000000000000000e+00  0.0000000000000000e+00 0.0000000000000000e+00 0.0000000000000000e+00  0.0000000000000000e+00 0.0000000000000000e+00 0.0000000000000000e+00  0.0000000000000000e+00 0.0000000000000000e+00 0.0000000000000000e+00  0.0000000000000000e+00 0.0000000000000000e+00 0.0000000000000000e+00  0.0000000000000000e+00 0.0000000000000000e+00 0.0000000000000000e+00  0.0000000000000000e+00 0.0000000000000000e+00 0.0000000000000000e+00  0.0000000000000000e+00 0.0000000000000000e+00 0.0000000000000000e+00  0.0000000000000000e+00 0.0000000000000000e+00 0.0000000000000000e+00  0.0000000000000000e+00 0.0000000000000000e+00 0.0000000000000000e+00  0.0000000000000000e+00 0.0000000000000000e+00 0.0000000000000000e+00  0.0000000000000000e+00 0.0000000000000000e+00 0.0000000000000000e+00  0.0000000000000000e+00 0.0000000000000000e+00 0.0000000000000000e+00  0.0000000000000000e+00 0.0000000000000000e+00 0.0000000000000000e+00  8.0258584058192883e-01 -1.5674617666530111e-01 0.0000000000000000e+00  1.3709746171645685e+00 -1.9777687241086012e-01 0.0000000000000000e+00  1.5909990212382419e+00 -1.1872129026506800e-01 0.0000000000000000e+00  1.0021124422113841e+00 -9.5012593543492688e-02 0.0000000000000000e+00  0.0000000000000000e+00 0.0000000000000000e+00 0.0000000000000000e+00  0.0000000000000000e+00 0.0000000000000000e+00 0.0000000000000000e+00  0.0000000000000000e+00 0.0000000000000000e+00 0.0000000000000000e+00  0.0000000000000000e+00 0.0000000000000000e+00 0.0000000000000000e+00  0.0000000000000000e+00 0.0000000000000000e+00 0.0000000000000000e+00  0.0000000000000000e+00 0.0000000000000000e+00 0.0000000000000000e+00  0.0000000000000000e+00 0.0000000000000000e+00 0.0000000000000000e+00  0.0000000000000000e+00 0.0000000000000000e+00 0.0000000000000000e+00  0.0000000000000000e+00 0.0000000000000000e+00 0.0000000000000000e+00  0.0000000000000000e+00 0.0000000000000000e+00 0.0000000000000000e+00  0.0000000000000000e+00 0.0000000000000000e+00 0.0000000000000000e+00  0.0000000000000000e+00 0.0000000000000000e+00 0.0000000000000000e+00  0.0000000000000000e+00 0.0000000000000000e+00 0.0000000000000000e+00  0.0000000000000000e+00 0.0000000000000000e+00 0.0000000000000000e+00  0.0000000000000000e+00 0.0000000000000000e+00 0.0000000000000000e+00  0.0000000000000000e+00 0.0000000000000000e+00 0.0000000000000000e+00  0.0000000000000000e+00 0.0000000000000000e+00 0.0000000000000000e+00  0.0000000000000000e+00 0.0000000000000000e+00 0.0000000000000000e+00  0.0000000000000000e+00 0.0000000000000000e+00 0.0000000000000000e+00  0.0000000000000000e+00 0.0000000000000000e+00 0.0000000000000000e+00  0.0000000000000000e+00 0.0000000000000000e+00 0.0000000000000000e+00  9.6000005426028390e-01 0.0000000000000000e+00 0.0000000000000000e+00  1.4400000813917480e+00 0.0000000000000000e+00 0.0000000000000000e+00  1.4400000813943266e+00 0.0000000000000000e+00 0.0000000000000000e+00  9.6000005426392343e-01 0.0000000000000000e+00 0.0000000000000000e+00  1.4102776617446372e-01 -3.6877435171269035e-01 0.0000000000000000e+00  5.4271090299235980e-01 -3.0321411814597377e-01 0.0000000000000000e+00  8.2637375181309125e-01 -6.4835038765637276e-01 0.0000000000000000e+00  1.7861108426741386e+00 -4.1656220441716837e-02 0.0000000000000000e+00  1.9128031154333929e+00 -1.3280244767478216e-01 0.0000000000000000e+00  1.4613609007015942e+00 1.5386324779173657e-01 0.0000000000000000e+00  1.3396656704263694e+00 3.5174359881215361e-01 0.0000000000000000e+00  1.3447727773522706e+00 2.8757344083638958e-01 0.0000000000000000e+00  1.3055871456171031e+00 -3.2327196549119981e-02 0.0000000000000000e+00  1.2502409167031272e+00 -2.9255747760662648e-01 0.0000000000000000e+00  1.3781908491997530e+00 -3.5313124232634807e-01 0.0000000000000000e+00  -3.9291196667762412e-01 5.3125889741223675e-02 0.0000000000000000e+00  1.5942909967979420e+00 1.7260367492897363e-01 0.0000000000000000e+00  -3.2810480299813476e-02 2.6536014423687533e-02 0.0000000000000000e+00  7.2847941190577914e-02 2.6705620850246453e-01 0.0000000000000000e+00  1.4333440585642907e+00 -7.4264369814094766e-01 0.0000000000000000e+00  5.5901962957536677e-01 7.0748313816422825e-02 0.0000000000000000e+00  1.8442063914019298e+00 -2.1335545504651898e-01 0.0000000000000000e+00  1.5874966593986275e+00 4.0203093920625688e-01 0.0000000000000000e+00  1.5836201441426012e+00 2.8824641816545954e-01 0.0000000000000000e+00  1.4670105497978119e+00 3.1526787596889311e-01 0.0000000000000000e+00  1.9698616772997983e+00 1.1819387589945453e-01 0.0000000000000000e+00  1.4691430360391167e+00 -2.7700678089519210e-01 0.0000000000000000e+00  9.2773842673951157e-01 -2.3647415488595277e-02 0.0000000000000000e+00  2.0827143216534396e+00 3.6738979746016542e-01 0.0000000000000000e+00  1.9420929805537357e+00 6.2451435872235339e-01 0.0000000000000000e+00  1.5460806370058533e+00 8.0320187799179310e-01 0.0000000000000000e+00  1.1753769291636988e+00 6.0943760663756963e-01 0.0000000000000000e+00  9.4649783601122151e-01 1.6151988077219637e-01 0.0000000000000000e+00  9.7466292733903181e-01 -3.4449591145763175e-01 0.0000000000000000e+00  1.2683575286053235e+00 -6.5711692595735505e-01 0.0000000000000000e+00  1.6197878401625414e+00 -6.8942742357985809e-01 0.0000000000000000e+00  1.8770546947512632e+00 -5.0796698366119519e-01 0.0000000000000000e+00  1.6296235537098487e+00 -3.1621621234182312e-01 0.0000000000000000e+00  1.5337726676595298e+00 1.4506006409290928e-03 0.0000000000000000e+00  1.4367948989687811e+00 -4.1462700702813138e-01 0.0000000000000000e+00  -1.9869310938725007e-01 1.8378893648827738e-01 0.0000000000000000e+00  1.5090450780362012e+00 4.6521380535306406e-01 0.0000000000000000e+00  1.4591665312493198e+00 2.1521018585246227e-01 0.0000000000000000e+00  1.3780410503326843e+00 -2.2152564917225137e-01 0.0000000000000000e+00  1.2718026266106623e+00 2.3892001486502631e-01 0.0000000000000000e+00  1.2806022819872049e+00 1.9186689049605490e-01 0.0000000000000000e+00  -4.1463100733719706e-02 3.5643580391109120e-01 0.0000000000000000e+00  9.9479545924423507e-01 -2.4187866358666871e-01 0.0000000000000000e+00  1.3232509027885242e+00 -2.1876379782944269e-01 0.0000000000000000e+00  1.4460847246901742e+00 3.4729458836389232e-01 0.0000000000000000e+00  1.0174947421860632e+00 -4.4586684995183873e-01 0.0000000000000000e+00  1.0038817705893064e+00 2.2446789364959675e-02 0.0000000000000000e+00  1.3076969449777867e+00 -2.5713702937967159e-01 0.0000000000000000e+00  -1.0732546145683454e-01 9.2636649627682227e-02 0.0000000000000000e+00  1.1445461931189780e+00 4.3751372917315179e-01 0.0000000000000000e+00  1.3718370004728708e+00 -2.6909619953751990e-01 0.0000000000000000e+00  1.0857646704277264e+00 1.8209841130089627e-01 0.0000000000000000e+00  1.2827112211728053e+00 6.3213342632231528e-01 0.0000000000000000e+00  1.8188167373746049e+00 8.7438317590127279e-01 0.0000000000000000e+00  1.2825972858228509e+00 9.9443802458632125e-01 0.0000000000000000e+00  7.8076925597537927e-01 5.7522696944379859e-01 0.0000000000000000e+00  6.4255660038617013e-01 -1.3326908805898333e-01 0.0000000000000000e+00  2.1377029332315360e+00 5.7066232673461603e-01 0.0000000000000000e+00  1.9029518990533889e+00 -2.8321113071277459e-01 0.0000000000000000e+00  1.7342715201187213e+00 1.6607791426888718e-01 0.0000000000000000e+00  9.4399790952241114e-01 -7.4613962416313429e-01 0.0000000000000000e+00  7.7595525915761443e-01 5.6700801068133233e-01 0.0000000000000000e+00  9.3162969246778360e-01 -3.2402052607646070e-01 0.0000000000000000e+00  1.0725858565472870e+00 -1.5048719964345258e-01 0.0000000000000000e+00  1.2452108774769197e+00 5.0778292823059290e-02 0.0000000000000000e+00  4.4426929657637459e-01 2.4993005496018818e-02 0.0000000000000000e+00  -3.8263384210539562e-02 2.8937896954341491e-01 0.0000000000000000e+00  -7.6600768163803928e-02 3.3679221569352408e-01 0.0000000000000000e+00  1.2974678930669858e+00 9.9377824775170098e-02 0.0000000000000000e+00  1.8021840975249395e+00 1.2325780270727625e-01 0.0000000000000000e+00  -2.0930361073012257e-02 1.1278732996483912e-02 0.0000000000000000e+00  1.4801957680446689e+00 -1.0060323824050521e+00 0.0000000000000000e+00  1.4625348885834639e+00 -3.8233097175319075e-01 0.0000000000000000e+00  1.0609299853914500e+00 -8.8395744103012083e-02 0.0000000000000000e+00  6.5501259756002250e-01 3.2788528995260656e-02 0.0000000000000000e+00  1.1096750266052955e+00 2.2810659830280169e-01 0.0000000000000000e+00  9.4812764757866641e-01 1.6801104468962225e-01 0.0000000000000000e+00  1.4300843532297483e+00 -2.4561939068251820e-01 0.0000000000000000e+00  1.0693048427622420e+00 2.5994750448732662e-01 0.0000000000000000e+00  4.5070720626033650e-01 -2.2805068719981513e-02 0.0000000000000000e+00  1.6965527016550879e+00 -3.3045950037655619e-01 0.0000000000000000e+00  -4.9194735396757588e-02 4.8781951271002405e-02 0.0000000000000000e+00  1.5804001852888834e+00 1.1612775933001021e+00 0.0000000000000000e+00  -4.5055850877722424e-02 2.3139231961949480e-01 0.0000000000000000e+00  2.0042180431000509e+00 7.8614597453636992e-01 0.0000000000000000e+00  8.7780002779340627e-01 9.8669978076171805e-01 0.0000000000000000e+00  4.3799643950329087e-01 2.6768959681959636e-01 0.0000000000000000e+00  9.2025008754656057e-01 -3.4301172612531117e-01 0.0000000000000000e+00  1.6738379898783109e+00 2.0782611315337041e-01 0.0000000000000000e+00  1.0996301907886776e+00 -2.8741724973942545e-01 0.0000000000000000e+00  1.5924822845855646e+00 2.3515616498034420e-01 0.0000000000000000e+00  -2.7855473801086515e-02 1.2528469735363085e-01 0.0000000000000000e+00  5.8028285333835228e-01 -5.6772277653745118e-01 0.0000000000000000e+00  1.2050448756809573e+00 -6.4878314785715110e-02 0.0000000000000000e+00  1.9093409849965841e+00 -7.7905848291796687e-01 0.0000000000000000e+00  1.1938562846078213e+00 1.4274060815682377e-01 0.0000000000000000e+00  4.3889703511087708e-01 5.2554596166491828e-03 0.0000000000000000e+00  -2.8041637221518123e-01 -9.7179875552355466e-01 0.0000000000000000e+00  1.2907803637037893e+00 -5.7360282960360687e-01 0.0000000000000000e+00  1.1343257428159157e+00 -1.0411823153096860e+00 0.0000000000000000e+00  1.3160109977299568e+00 -1.1143154163742168e-01 0.0000000000000000e+00  8.7760994560404781e-01 -9.7428493181398568e-02 0.0000000000000000e+00  9.0929018741312195e-01 3.5903037294575796e-01 0.0000000000000000e+00  7.2129508901498840e-01 -5.2674604841601379e-02 0.0000000000000000e+00  1.6269940370047056e-02 -2.3850130535565586e-02 0.0000000000000000e+00  1.3218549652265854e+00 -1.4314516058525923e-02 0.0000000000000000e+00  1.7720793772503460e+00 -5.0241463523056651e-01 0.0000000000000000e+00  1.2896762547572345e+00 2.7233006943691570e-02 0.0000000000000000e+00  1.7370246632984072e+00 -9.7329017494565795e-01 0.0000000000000000e+00  9.1979897168440872e-01 -1.5495745709073777e-01 0.0000000000000000e+00  1.5794962290318586e+00 9.1598009599541251e-04 0.0000000000000000e+00  1.6921146828756373e+00 3.1801799625429439e-01 0.0000000000000000e+00  1.4177668255954303e+00 1.1291441475645034e-01 0.0000000000000000e+00  1.0375843587001716e+00 1.4429680627827740e-01 0.0000000000000000e+00  -1.7809341423850600e-01 2.6848655837884022e-01 0.0000000000000000e+00  7.6103629563496789e-01 1.1127466267956354e-01 0.0000000000000000e+00  1.3903702181420423e+00 4.5775037730348977e-01 0.0000000000000000e+00  1.2766269451240400e+00 -6.3731097401875242e-02 0.0000000000000000e+00  1.2798828127794035e+00 2.0724373222734993e-01 0.0000000000000000e+00  1.6557644787328010e+00 2.1351388504745852e-01 0.0000000000000000e+00  1.3072672531582576e+00 1.3001011162869333e-01 0.0000000000000000e+00  1.0806116587734809e+00 2.0583954647138086e-01 0.0000000000000000e+00  5.4290411151429707e-01 1.8526439114242946e-01 0.0000000000000000e+00  1.8752103689282407e+00 -4.4156366075338721e-01 0.0000000000000000e+00  -6.6842308702767528e-02 3.3080086580731999e-01 0.0000000000000000e+00  1.6724988446110240e+00 -3.5440004216939808e-01 0.0000000000000000e+00  1.6158852777704338e+00 3.7721244531502929e-01 0.0000000000000000e+00  1.5867562803421620e+00 -4.4455558319339039e-01 0.0000000000000000e+00  1.7137649817040566e+00 3.6911085140175337e-01 0.0000000000000000e+00  7.1428746540825472e-01 -1.5837482437686048e-01 0.0000000000000000e+00  1.6215212827258947e+00 5.1620050403658790e-01 0.0000000000000000e+00  1.6444486623651851e+00 -5.0866503943696462e-01 0.0000000000000000e+00  1.4467847303451780e+00 -1.4744997984356614e-01 0.0000000000000000e+00  1.7503008167857265e-01 2.5559474456065051e-01 0.0000000000000000e+00  1.2594084008148672e+00 -2.7736480583575956e-01 0.0000000000000000e+00  1.4783533973954732e+00 -5.4852287150204448e-01 0.0000000000000000e+00  1.5655715615991972e+00 -5.7230184344679927e-02 0.0000000000000000e+00  1.0290712956709900e+00 2.1598298347446176e-01 0.0000000000000000e+00  1.1453019667175730e+00 1.1726959708338983e-01 0.0000000000000000e+00  5.9168394066548902e-01 -1.0964970174871204e-01 0.0000000000000000e+00  1.3297200803460139e+00 -2.0124903068377020e-01 0.0000000000000000e+00  1.9125102884408429e+00 8.5914948037034769e-02 0.0000000000000000e+00  8.5553099174254765e-01 1.4326872341469662e-01 0.0000000000000000e+00  1.0406080927303563e+00 -2.1707012473667478e-01 0.0000000000000000e+00  9.1882539702226329e-01 -1.4404048592699925e-01 0.0000000000000000e+00  -5.0158748431318989e-01 -4.4360651245295524e-01 0.0000000000000000e+00  -3.2509770676876361e-02 4.1308678441719308e-02 0.0000000000000000e+00  9.0626019230815202e-01 7.8855529921400842e-03 0.0000000000000000e+00  6.0329105554649487e-01 -1.5287043952007272e-02 0.0000000000000000e+00  1.6546684511749326e+00 9.6946105009804651e-01 0.0000000000000000e+00  1.4488889502471041e+00 -3.6300895013605702e-03 0.0000000000000000e+00  8.0597812772871757e-01 6.8941142365312735e-01 0.0000000000000000e+00  7.6250357614507314e-01 1.4974697943843618e-01 0.0000000000000000e+00  1.3826504987737205e+00 -3.0906620686956049e-01 0.0000000000000000e+00  6.3619669659573463e-01 8.0987528620870594e-02 0.0000000000000000e+00  -1.4717767367842244e-02 -1.0525634376735044e-01 0.0000000000000000e+00  5.6991577864424425e-01 -2.3271611017951929e-02 0.0000000000000000e+00  8.1234030427521486e-01 -1.9032964044885245e-01 0.0000000000000000e+00  1.1452006674982254e+00 1.1936522615346492e+00 0.0000000000000000e+00  1.7581927932468420e+00 9.9791386806354465e-01 0.0000000000000000e+00  4.7249780440559397e-01 7.1895015520288530e-01 0.0000000000000000e+00  3.0018038234870936e-01 -1.8290481313754214e-01 0.0000000000000000e+00  7.5624824797480206e-01 -1.6273059380768068e-01 0.0000000000000000e+00  -6.3185337115391066e-03 5.1213021136513957e-02 0.0000000000000000e+00  1.5661192842856044e+00 3.8094648581843743e-01 0.0000000000000000e+00  -4.6279624595731310e-02 -7.2987212740533098e-03 0.0000000000000000e+00  -8.7468604987589148e-03 1.2947371812629582e-01 0.0000000000000000e+00  1.3845234781854607e+00 7.4625309520642405e-02 0.0000000000000000e+00  1.1469446240521042e+00 -3.4960054541461276e-02 0.0000000000000000e+00  7.2008530821232786e-01 -9.3474671897290196e-01 0.0000000000000000e+00  1.0467065036363625e+00 -2.4879275614537472e-02 0.0000000000000000e+00  6.1414238164286872e-01 5.6635462780487686e-02 0.0000000000000000e+00  5.0059595682654434e-01 -1.2178191829913929e-01 0.0000000000000000e+00  7.9001512533113027e-01 1.0293277310206052e-01 0.0000000000000000e+00  1.3576683623767645e+00 -4.4035821058276631e-01 0.0000000000000000e+00  1.1997701040797026e+00 6.5542153505030487e-01 0.0000000000000000e+00  6.0615634341227442e-01 1.1131495222839603e-02 0.0000000000000000e+00  4.4731238165479953e-01 7.7334312073336171e-03 0.0000000000000000e+00  -2.1214431340556672e-01 3.3570793414933117e-02 0.0000000000000000e+00  8.9339169042564237e-01 -1.7590385175311224e-02 0.0000000000000000e+00  1.2952535647606402e+00 2.5061315559250463e-01 0.0000000000000000e+00  8.8118288925357269e-01 1.2911377687318195e-02 0.0000000000000000e+00  2.0468615697674366e+00 -1.0436632758536174e-02 0.0000000000000000e+00  1.4589874235742617e+00 6.4650303957260362e-03 0.0000000000000000e+00  1.6219326936143628e+00 5.8726154659251539e-01 0.0000000000000000e+00  7.3462552187904884e-01 8.5021104344918108e-03 0.0000000000000000e+00  1.4486639590263906e+00 4.0445202568765765e-01 0.0000000000000000e+00  1.6643689083592965e+00 4.5444555972601181e-01 0.0000000000000000e+00  1.5614427493455700e+00 4.5596635232756194e-01 0.0000000000000000e+00  1.4842871783377058e+00 1.3216996489870952e-01 0.0000000000000000e+00  9.8056156221453450e-01 2.6343994664626896e-01 0.0000000000000000e+00  1.3984219827274300e+00 1.6614268104947430e-01 0.0000000000000000e+00  1.3990407189120027e+00 -3.3133272603055636e-01 0.0000000000000000e+00  1.5141027890162500e+00 1.0141495186359406e-01 0.0000000000000000e+00  8.7679824414774821e-01 -5.7691257584249933e-01 0.0000000000000000e+00  1.4975095375880512e+00 -6.7005414065858859e