<?xml version="1.0"?>
<VTKFile type="UnstructuredGrid"  version="0.1"  >
<UnstructuredGrid>
<Piece  NumberOfPoints="3852" NumberOfCells="7360">
<Points>
<DataArray  type="Float64"  NumberOfComponents="3"  format="ascii">0 0 0  0 0.41 0  2.2 0.41 0  2.2 0 0  0.2 0.15 0  0.15 0.2 0  0.2 0.25 0  0.25 0.2 0  0.2097545161007899 0.1509607359798352 0  0.219134171618224 0.153806023374423 0  0.2277785116509268 0.1584265193848371 0  0.2353553390592504 0.1646446609405956 0  0.2415734806150793 0.1722214883489481 0  0.2461939766255306 0.1808658283816641 0  0.249039264020151 0.1902454838991403 0  0.2490392640201666 0.2097545161007811 0  0.2461939766255869 0.2191341716182 0  0.2415734806151802 0.2277785116509009 0  0.2353553390594108 0.235355339059244 0  0.2277785116510524 0.2415734806150789 0  0.2191341716182962 0.2461939766255471 0  0.209754516100834 0.2490392640201561 0  0.1902454838992189 0.2490392640201666 0  0.1808658283818 0.2461939766255869 0  0.1722214883490991 0.2415734806151802 0  0.164644660940756 0.2353553390594108 0  0.1584265193849211 0.2277785116510524 0  0.1538060233744529 0.2191341716182962 0  0.150960735979844 0.209754516100834 0  0.1509607359798352 0.1902454838992101 0  0.153806023374423 0.180865828381776 0  0.1584265193848371 0.1722214883490732 0  0.1646446609405956 0.1646446609407496 0  0.1722214883489481 0.1584265193849207 0  0.1808658283816641 0.1538060233744694 0  0.1902454838991403 0.150960735979849 0  0.09999999999980318 0 0  0.1999999999996354 0 0  0.2999999999994593 0 0  0.3999999999991452 0 0  0.4999999999988309 0 0  0.599999999998495 0 0  0.6999999999982023 0 0  0.7999999999979096 0 0  0.8999999999975735 0 0  0.9999999999972848 0 0  1.099999999997053 0 0  1.199999999997309 0 0  1.299999999997566 0 0  1.399999999997821 0 0  1.49999999999809 0 0  1.599999999998377 0 0  1.69999999999859 0 0  1.799999999998877 0 0  1.899999999999145 0 0  1.999999999999386 0 0  2.099999999999693 0 0  2.2 0.08199999999981657 0  2.2 0.1639999999995688 0  2.2 0.2459999999995603 0  2.2 0.327999999999785 0  2.100000000000048 0.41 0  2.000000000000269 0.41 0  1.900000000000422 0.41 0  1.800000000000679 0.41 0  1.700000000000931 0.41 0  1.600000000001326 0.41 0  1.500000000001665 0.41 0  1.400000000002032 0.41 0  1.300000000002395 0.41 0  1.200000000002644 0.41 0  1.100000000002865 0.41 0  1.000000000002617 0.41 0  0.900000000002368 0.41 0  0.8000000000021192 0.41 0  0.7000000000018587 0.41 0  0.6000000000015786 0.41 0  0.5000000000013736 0.41 0  0.4000000000010933 0.41 0  0.3000000000008329 0.41 0  0.2000000000005997 0.41 0  0.1000000000003003 0.41 0  0 0.3280000000001975 0  0 0.2460000000004372 0  0 0.1640000000004437 0  0 0.08200000000021695 0  0.439039350479032 0.2235433210862024 0  0.3557293424662716 0.1539377961885917 0  0.3450132387946972 0.2399891502764809 0  0.2900756359792848 0.08507884665974728 0  0.2884413411145515 0.3059878288466324 0  0.2102195502178943 0.3385267178242456 0  0.137328909169326 0.3152847369018352 0  0.08490385663776813 0.2628976192695439 0  0.08063302347471875 0.188368977740952 0  0.1005937615311739 0.1162460982751979 0  0.1621860847198582 0.08598327887900903 0  0.3012864586130264 0.1926027915888804 0  1.999140000000448 0.2049999999995642 0  0.2742354912953259 0.1572259708446958 0  0.2871471664627305 0.2264358039321654 0  0.6542851578645765 0.1981889790488746 0  0.2651366296338276 0.2534562504463119 0  0.2371819217149928 0.0977949043027586 0  1.651678197071202 0.2145186615851206 0  1.349674714201118 0.2086119645070391 0  0.9627539291831038 0.2056711800839285 0  0.2360880502985623 0.2733043913425156 0  1.159884231859056 0.2050429640239795 0  0.2502927927237266 0.1358797630898622 0  0.2080582834123368 0.2835355213895352 0  0.1805439632603489 0.278338480667804 0  0.1486243506827335 0.2626014098227327 0  0.1266658889266303 0.2392753516137401 0  0.1179814841582247 0.2069380844236527 0  0.1225167704961566 0.1764957192948648 0  0.1357996569043286 0.1472158045151807 0  0.1619764829264572 0.126298308975886 0  0.1935640279204225 0.116654032325456 0  1.82457000000085 0.2346439024393236 0  0.8027657238591595 0.149277802568535 0  1.498563450727992 0.2632867809910664 0  0.2770405925201826 0.1924926016722167 0  0.470924801584011 0.09138612536042019 0  0.550693598792917 0.2898604497866635 0  0.381089831438127 0.3238078833671811 0  2.074516462495042 0.125705772324225 0  2.083599037046577 0.2769549245607841 0  0.2692296340100125 0.2210592970306522 0  0.7614733075682367 0.2839235561638241 0  1.536698221979284 0.1258192462655419 0  1.231809489345021 0.1282542717942667 0  1.054759157670174 0.1242749934189342 0  1.754535566851005 0.1223197024158991 0  1.90452621597739 0.1324728094649104 0  0.2672409321155211 0.178737994598723 0  1.254401531996246 0.2902808614622134 0  1.04350934597445 0.2986664252663559 0  0.0749710792305778 0.3208721925318313 0  0.5425289614095572 0.165152457827861 0  0.1663208394680799 0.2644065126118989 0  0.1471335176887868 0.2433864007787126 0  0.1345556779484054 0.219852318055334 0  0.131940483167677 0.1932967226753857 0  0.1941574795820069 0.2685534232066453 0  0.2226696214021025 0.1252682734732412 0  0.2193882214552426 0.2661718674478616 0  0.1396865053227576 0.1677617654469802 0  0.8749487631478475 0.295170577255529 0  1.424301820545763 0.1157348858866879 0  1.918515045506933 0.2902236143624367 0  1.744876807925144 0.306628844405037 0  0.2443979144126529 0.254353837216211 0  0.2569054246570621 0.2306780201523878 0  0.2632507216716993 0.2062296523407826 0  0.4609453431326088 0.3138128990490959 0  0.3578015395476809 0.08253318517696946 0  0.2529777826635333 0.155582948480283 0  0.1580369715200277 0.1487041474358234 0  0.652872088668587 0.3101079993636056 0  0.297147332491062 0.2558065812325378 0  0.6188247313471635 0.1101603945467571 0  0.8951149554961688 0.1123812542864208 0  1.592749166085722 0.2985190085719691 0  1.40420309431358 0.2992155383468256 0  1.649189110727275 0.1000387439201274 0  0.2301663900864273 0.1432830242131801 0  0.2064839406544439 0.1345771465164309 0  0.2548204572493643 0.1702022465417566 0  0.1606700828011604 0.2481621709908606 0  0.2605987457303776 0.1928909671966518 0  0.1826942838524941 0.2594610608897559 0  0.1456438338561037 0.2290651013631561 0  0.1387681034994896 0.2058679665896095 0  1.140902260384949 0.3081952438204152 0  2.123402621966431 0.2039515281261525 0  0.7272188829630218 0.1047469619375249 0  0.2060868819369127 0.2616331638469837 0  0.246763614216289 0.2411610007697902 0  0.1405961691450822 0.1819800466423126 0  1.149638048863541 0.08264492713269313 0  0.1809997740285721 0.1365020267363126 0  1.993198408221569 0.09755938404998035 0  0.2287111352430851 0.2547015941619741 0  0.3818716699056283 0.2060398770290832 0  0.39147508084147 0.2656155699545688 0  0.151201080877373 0.1608659990301362 0  0.0542521118046473 0.1382221876243976 0  0.06190301158313444 0.0685934933767465 0  1.317316039400266 0.1015983144534349 0  0.2176417279723976 0.1415790407114221 0  0.2401571300978209 0.1529210337009423 0  0.2618092962776011 0.3566662607419938 0  0.1941527094396574 0.1377969918002053 0  0.9590486261329707 0.3255353063371385 0  0.1708201090411339 0.1447474051814825 0  1.837592370686806 0.3302992722413595 0  0.3197015570210796 0.1212159119695666 0  0.4155281956943757 0.1409543952531078 0  0.0549491513262805 0.2307535706287103 0  0.1668210562270142 0.3605647861782867 0  0.2854688902460447 0.2093700809023571 0  2.013251581901814 0.3292746985146142 0  0.1192191106244758 0.2809901915857802 0  0.2487958366614321 0.04556523514103697 0  0.09061021186838321 0.2240174335271237 0  1.737143840576958 0.20912817770623 0  0.04515017012776967 0.2784708690411318 0  0.5347554646753627 0.08988970780599832 0  0.977104673723579 0.08241628541188413 0  0.336509991617897 0.2888965225844298 0  0.2569238041969055 0.2173711314485607 0  1.906541186051535 0.2125389476829634 0  0.1762338839607841 0.3102437166134606 0  1.449268841077636 0.201011295143529 0  0.8555371485878378 0.2099663446585434 0  1.837208236203613 0.07556229833764837 0  1.264402545318887 0.1992523923163096 0  1.068181074047183 0.2155119107017876 0  0.3158931250274742 0.3421721218291775 0  0.2731958384900449 0.2373435058667565 0  0.09875906484220501 0.1533097574901186 0  0.7355755433976705 0.2066339904079041 0  1.567440499207928 0.2049999999995983 0  1.329829828222916 0.3295825481537897 0  0.8214190147401245 0.07894167681990104 0  1.525459989258997 0.3394220200696043 0  0.1990897327079506 0.06300531675246424 0  0.244701762210989 0.3062404318132603 0  0.1033853772622983 0.3551443431224104 0  0.1178236825374896 0.07148041782551597 0  0.1558198999929474 0.04409380269139784 0  0.3389178979413869 0.198678920661321 0  0.310790717645908 0.2196004930752872 0  2.125022007676643 0.3402049371791425 0  2.130028889485561 0.06535501282233655 0  0.4821161335597635 0.1626909543876269 0  0.2838678108956019 0.1254276466262967 0  0.5062815929260498 0.2376271077316994 0  1.663059277092996 0.3422301118688678 0  1.82292665764828 0.1574809263836269 0  2.052538557905295 0.05717536030732174 0  0.3078251537889645 0.16056368457456 0  0.8108267070172145 0.3390047366820738 0  1.487254632568403 0.0703866281621833 0  0.155004430757041 0.2369517702015699 0  0.1725545045705267 0.2519594403466565 0  0.1445581653510352 0.2167994984574706 0  0.1420710285613199 0.1942747855116325 0  1.461861739291679 0.3471998553985149 0  0.2372128969196007 0.2453440460936858 0  0.1943665918892754 0.2580518465884657 0  0.2452139232912363 0.1629124725160763 0  0.2555786751481889 0.1825885041235872 0  2.14640473333793 0.2790222779730848 0  2.145589594789407 0.1282024626544199 0  0.1486651579751984 0.1726583296292201 0  0.550000000001476 0.3603327897285098 0  0.0505668771231032 0.3660023622363767 0  1.049999999997169 0.05217028468202135 0  1.244771793631775 0.05744029386223062 0  0.1356759337238615 0.1094447816941579 0  0.5872326411628903 0.2223148728195226 0  0.2168458206248643 0.2558159203714847 0  1.749999999998732 0.05166028789524129 0  0.2855257256666041 0.1763246086558152 0  1.92
[...]
<PointData  Vectors="f_22"> 
<DataArray  type="Float64"  Name="f_22"  NumberOfComponents="3" format="ascii">0.0000000000000000e+00 0.0000000000000000e+00 0.0000000000000000e+00  0.0000000000000000e+00 0.0000000000000000e+00 0.0000000000000000e+00  0.0000000000000000e+00 0.0000000000000000e+00 0.0000000000000000e+00  0.0000000000000000e+00 0.0000000000000000e+00 0.0000000000000000e+00  0.0000000000000000e+00 0.0000000000000000e+00 0.0000000000000000e+00  0.0000000000000000e+00 0.0000000000000000e+00 0.0000000000000000e+00  0.0000000000000000e+00 0.0000000000000000e+00 0.0000000000000000e+00  0.0000000000000000e+00 0.0000000000000000e+00 0.0000000000000000e+00  0.0000000000000000e+00 0.0000000000000000e+00 0.0000000000000000e+00  0.0000000000000000e+00 0.0000000000000000e+00 0.0000000000000000e+00  0.0000000000000000e+00 0.0000000000000000e+00 0.0000000000000000e+00  0.0000000000000000e+00 0.0000000000000000e+00 0.0000000000000000e+00  0.0000000000000000e+00 0.0000000000000000e+00 0.0000000000000000e+00  0.0000000000000000e+00 0.0000000000000000e+00 0.0000000000000000e+00  0.0000000000000000e+00 0.0000000000000000e+00 0.0000000000000000e+00  0.0000000000000000e+00 0.0000000000000000e+00 0.0000000000000000e+00  0.0000000000000000e+00 0.0000000000000000e+00 0.0000000000000000e+00  0.0000000000000000e+00 0.0000000000000000e+00 0.0000000000000000e+00  0.0000000000000000e+00 0.0000000000000000e+00 0.0000000000000000e+00  0.0000000000000000e+00 0.0000000000000000e+00 0.0000000000000000e+00  0.0000000000000000e+00 0.0000000000000000e+00 0.0000000000000000e+00  0.0000000000000000e+00 0.0000000000000000e+00 0.0000000000000000e+00  0.0000000000000000e+00 0.0000000000000000e+00 0.0000000000000000e+00  0.0000000000000000e+00 0.0000000000000000e+00 0.0000000000000000e+00  0.0000000000000000e+00 0.0000000000000000e+00 0.0000000000000000e+00  0.0000000000000000e+00 0.0000000000000000e+00 0.0000000000000000e+00  0.0000000000000000e+00 0.0000000000000000e+00 0.0000000000000000e+00  0.0000000000000000e+00 0.0000000000000000e+00 0.0000000000000000e+00  0.0000000000000000e+00 0.0000000000000000e+00 0.0000000000000000e+00  0.0000000000000000e+00 0.0000000000000000e+00 0.0000000000000000e+00  0.0000000000000000e+00 0.0000000000000000e+00 0.0000000000000000e+00  0.0000000000000000e+00 0.0000000000000000e+00 0.0000000000000000e+00  0.0000000000000000e+00 0.0000000000000000e+00 0.0000000000000000e+00  0.0000000000000000e+00 0.0000000000000000e+00 0.0000000000000000e+00  0.0000000000000000e+00 0.0000000000000000e+00 0.0000000000000000e+00  0.0000000000000000e+00 0.0000000000000000e+00 0.0000000000000000e+00  0.0000000000000000e+00 0.0000000000000000e+00 0.0000000000000000e+00  0.0000000000000000e+00 0.0000000000000000e+00 0.0000000000000000e+00  0.0000000000000000e+00 0.0000000000000000e+00 0.0000000000000000e+00  0.0000000000000000e+00 0.0000000000000000e+00 0.0000000000000000e+00  0.0000000000000000e+00 0.0000000000000000e+00 0.0000000000000000e+00  0.0000000000000000e+00 0.0000000000000000e+00 0.0000000000000000e+00  0.0000000000000000e+00 0.0000000000000000e+00 0.0000000000000000e+00  0.0000000000000000e+00 0.0000000000000000e+00 0.0000000000000000e+00  0.0000000000000000e+00 0.0000000000000000e+00 0.0000000000000000e+00  0.0000000000000000e+00 0.0000000000000000e+00 0.0000000000000000e+00  0.0000000000000000e+00 0.0000000000000000e+00 0.0000000000000000e+00  0.0000000000000000e+00 0.0000000000000000e+00 0.0000000000000000e+00  0.0000000000000000e+00 0.0000000000000000e+00 0.0000000000000000e+00  0.0000000000000000e+00 0.0000000000000000e+00 0.0000000000000000e+00  0.0000000000000000e+00 0.0000000000000000e+00 0.0000000000000000e+00  0.0000000000000000e+00 0.0000000000000000e+00 0.0000000000000000e+00  0.0000000000000000e+00 0.0000000000000000e+00 0.0000000000000000e+00  0.0000000000000000e+00 0.0000000000000000e+00 0.0000000000000000e+00  0.0000000000000000e+00 0.0000000000000000e+00 0.0000000000000000e+00  0.0000000000000000e+00 0.0000000000000000e+00 0.0000000000000000e+00  0.0000000000000000e+00 0.0000000000000000e+00 0.0000000000000000e+00  1.0936881334618833e+00 -7.7874103090222230e-04 0.0000000000000000e+00  1.2613981289198821e+00 -3.9027378963634976e-03 0.0000000000000000e+00  1.2674511603855079e+00 -5.9268127465652255e-03 0.0000000000000000e+00  1.0952826180906874e+00 -8.9918230579889272e-04 0.0000000000000000e+00  0.0000000000000000e+00 0.0000000000000000e+00 0.0000000000000000e+00  0.0000000000000000e+00 0.0000000000000000e+00 0.0000000000000000e+00  0.0000000000000000e+00 0.0000000000000000e+00 0.0000000000000000e+00  0.0000000000000000e+00 0.0000000000000000e+00 0.0000000000000000e+00  0.0000000000000000e+00 0.0000000000000000e+00 0.0000000000000000e+00  0.0000000000000000e+00 0.0000000000000000e+00 0.0000000000000000e+00  0.0000000000000000e+00 0.0000000000000000e+00 0.0000000000000000e+00  0.0000000000000000e+00 0.0000000000000000e+00 0.0000000000000000e+00  0.0000000000000000e+00 0.0000000000000000e+00 0.0000000000000000e+00  0.0000000000000000e+00 0.0000000000000000e+00 0.0000000000000000e+00  0.0000000000000000e+00 0.0000000000000000e+00 0.0000000000000000e+00  0.0000000000000000e+00 0.0000000000000000e+00 0.0000000000000000e+00  0.0000000000000000e+00 0.0000000000000000e+00 0.0000000000000000e+00  0.0000000000000000e+00 0.0000000000000000e+00 0.0000000000000000e+00  0.0000000000000000e+00 0.0000000000000000e+00 0.0000000000000000e+00  0.0000000000000000e+00 0.0000000000000000e+00 0.0000000000000000e+00  0.0000000000000000e+00 0.0000000000000000e+00 0.0000000000000000e+00  0.0000000000000000e+00 0.0000000000000000e+00 0.0000000000000000e+00  0.0000000000000000e+00 0.0000000000000000e+00 0.0000000000000000e+00  0.0000000000000000e+00 0.0000000000000000e+00 0.0000000000000000e+00  0.0000000000000000e+00 0.0000000000000000e+00 0.0000000000000000e+00  9.6000005096578267e-01 0.0000000000000000e+00 0.0000000000000000e+00  1.4400000764499961e+00 0.0000000000000000e+00 0.0000000000000000e+00  1.4400000764525742e+00 0.0000000000000000e+00 0.0000000000000000e+00  9.6000005096942198e-01 0.0000000000000000e+00 0.0000000000000000e+00  -3.5801689262504588e-01 -3.7758867503123672e-01 0.0000000000000000e+00  3.5272278786354777e-01 -1.9427095326485488e-01 0.0000000000000000e+00  1.3263174772234879e-01 -1.7960072250259534e-01 0.0000000000000000e+00  1.8513744693973575e+00 -9.3447796905786501e-02 0.0000000000000000e+00  1.9493934608906471e+00 3.6975375310244626e-02 0.0000000000000000e+00  1.4636765210351608e+00 2.0156259992754888e-01 0.0000000000000000e+00  1.3228120522551650e+00 3.5325677895779645e-01 0.0000000000000000e+00  1.3354510464676739e+00 2.6869891613615088e-01 0.0000000000000000e+00  1.3054973582321587e+00 -6.0549435134573747e-02 0.0000000000000000e+00  1.2592822210495782e+00 -3.1766393442811264e-01 0.0000000000000000e+00  1.4010845488640760e+00 -3.7736671406463151e-01 0.0000000000000000e+00  -2.2279935964030903e-01 -4.8145950559422050e-02 0.0000000000000000e+00  1.2512658299836954e+00 3.0407892406742409e-04 0.0000000000000000e+00  1.1585017466661456e-02 -5.5377543541513773e-02 0.0000000000000000e+00  -9.5626141512828153e-02 1.0201477433801485e-01 0.0000000000000000e+00  9.1992208340213788e-01 -2.9361869611250474e-01 0.0000000000000000e+00  3.3147703547417212e-01 7.5216141804101466e-02 0.0000000000000000e+00  1.8755739200592993e+00 -2.5518049354281308e-01 0.0000000000000000e+00  1.3472897100765857e+00 -3.4172105026573148e-02 0.0000000000000000e+00  1.3631272929260250e+00 -1.1772964428876025e-01 0.0000000000000000e+00  1.5815243128793994e+00 3.0582717020979056e-01 0.0000000000000000e+00  1.7854204050828761e+00 1.9443539133602089e-01 0.0000000000000000e+00  1.7589417382031312e+00 -3.7871469982543660e-01 0.0000000000000000e+00  8.5427242082751986e-01 -5.9001674578718577e-02 0.0000000000000000e+00  2.0189691457975627e+00 4.2608627528452830e-01 0.0000000000000000e+00  1.8837451361309836e+00 6.4115920799965942e-01 0.0000000000000000e+00  1.5064329911355110e+00 7.8316366149437089e-01 0.0000000000000000e+00  1.1539429662411413e+00 5.7438590892186281e-01 0.0000000000000000e+00  9.4063608327427850e-01 1.2021189661558167e-01 0.0000000000000000e+00  9.8077983518197853e-01 -3.8476395081520248e-01 0.0000000000000000e+00  1.2823430523989465e+00 -6.9108174674112666e-01 0.0000000000000000e+00  1.6370011415625709e+00 -7.1731021465731248e-01 0.0000000000000000e+00  1.8932081699594152e+00 -5.3647824339638917e-01 0.0000000000000000e+00  1.2107503665825778e+00 -2.3123919742580969e-02 0.0000000000000000e+00  1.3521080001150254e+00 -1.9696596054884127e-01 0.0000000000000000e+00  1.3117493741575650e+00 1.0723401733419004e-01 0.0000000000000000e+00  -1.2796831753333976e-01 -2.9557178738775928e-03 0.0000000000000000e+00  1.7829651463445182e+00 4.2728819087725006e-01 0.0000000000000000e+00  1.7030577883353237e+00 4.1282722787070028e-02 0.0000000000000000e+00  1.6733647237144436e+00 -1.2937735789274266e-01 0.0000000000000000e+00  1.2236644177424303e+00 -4.6183525922958773e-03 0.0000000000000000e+00  1.2622123905241929e+00 -4.5520428263575415e-03 0.0000000000000000e+00  -8.8833202503445424e-02 1.4034407088664611e-01 0.0000000000000000e+00  1.2877979076152188e+00 -9.1644391240796153e-02 0.0000000000000000e+00  1.2749904919080601e+00 -3.8706923256835571e-02 0.0000000000000000e+00  1.3855965853096999e+00 -4.8285743497427550e-02 0.0000000000000000e+00  1.0979943606619289e+00 5.9802868588418453e-03 0.0000000000000000e+00  1.2505767193556223e+00 -3.5958310798100294e-02 0.0000000000000000e+00  1.2531602830943465e+00 7.2907010155710593e-03 0.0000000000000000e+00  -7.5697313390387821e-02 -5.1444472360715927e-02 0.0000000000000000e+00  1.2011066397617973e+00 1.3268834837484944e-01 0.0000000000000000e+00  1.5566911713216347e+00 -1.8581004954415037e-01 0.0000000000000000e+00  1.0809809466571692e+00 1.7541860101228510e-01 0.0000000000000000e+00  1.1790194603185837e+00 7.1641558086614066e-01 0.0000000000000000e+00  1.7623112718619864e+00 8.6393277112832145e-01 0.0000000000000000e+00  1.2461657554339769e+00 9.5764882018077080e-01 0.0000000000000000e+00  7.6483530520164233e-01 5.2886566724884110e-01 0.0000000000000000e+00  6.4397906919115311e-01 -1.8005078070815350e-01 0.0000000000000000e+00  2.0433137633637632e+00 5.9279407929818029e-01 0.0000000000000000e+00  1.8890849754660652e+00 -3.1354720878256376e-01 0.0000000000000000e+00  1.5417489423736708e+00 2.0355429059310909e-01 0.0000000000000000e+00  9.5769027682100272e-01 -7.8586028889031412e-01 0.0000000000000000e+00  8.6185259607247111e-01 5.8005139128749536e-02 0.0000000000000000e+00  1.2693580240235831e+00 -6.9894790867677040e-02 0.0000000000000000e+00  1.2629424299492615e+00 7.7197742318826706e-04 0.0000000000000000e+00  1.2083166505337857e+00 2.9224083326369939e-02 0.0000000000000000e+00  2.9944195751517688e-01 4.9442602364888552e-02 0.0000000000000000e+00  -6.6422018125250115e-02 1.5811606245398022e-01 0.0000000000000000e+00  -6.3571089818915225e-02 9.6009434993577100e-02 0.0000000000000000e+00  1.6169179569071599e+00 -9.3069843204435076e-03 0.0000000000000000e+00  1.9004663633741421e+00 4.1731411546249556e-02 0.0000000000000000e+00  -1.7701517889709639e-02 -5.1567094687190375e-02 0.0000000000000000e+00  1.4984464554345074e+00 -1.0350496640786884e+00 0.0000000000000000e+00  1.6900587979287414e+00 -4.4783191512817205e-01 0.0000000000000000e+00  5.6029764401477244e-01 2.0789734722169311e-02 0.0000000000000000e+00  1.1518482481916004e+00 -7.1277548196356746e-02 0.0000000000000000e+00  1.4094771252293841e+00 2.9468300105838363e-01 0.0000000000000000e+00  1.3269641867359165e+00 3.5496734113539381e-02 0.0000000000000000e+00  1.2378881084027102e+00 5.1018613353128062e-03 0.0000000000000000e+00  1.1493240310756769e+00 -2.0376514634884185e-02 0.0000000000000000e+00  4.0453665339349820e-01 -3.5797184022186006e-02 0.0000000000000000e+00  1.6728638161307960e+00 -3.4531285214960583e-01 0.0000000000000000e+00  -5.4542575233047612e-02 -5.6866437652351574e-02 0.0000000000000000e+00  1.5273351949719554e+00 1.1273054876617252e+00 0.0000000000000000e+00  -4.0026576476148074e-02 2.4135007286917403e-02 0.0000000000000000e+00  1.9106582360245317e+00 7.7504699225627460e-01 0.0000000000000000e+00  8.5022932924546335e-01 9.3924603466040346e-01 0.0000000000000000e+00  4.3149078838172378e-01 2.1653402412972941e-01 0.0000000000000000e+00  1.1004817641241325e+00 -7.9769673715851544e-02 0.0000000000000000e+00  1.2645796875553783e+00 -1.3138884639698870e-02 0.0000000000000000e+00  1.1874749745174833e+00 -1.5764094473741830e-01 0.0000000000000000e+00  1.4308058590841171e+00 2.4613144539357512e-01 0.0000000000000000e+00  -4.7682128486004650e-02 1.0504440228171778e-01 0.0000000000000000e+00  5.9027390970832561e-01 -6.1363515584273787e-01 0.0000000000000000e+00  9.7028609997884407e-01 2.8524128495135068e-02 0.0000000000000000e+00  1.9199379255607367e+00 -8.0004448061922562e-01 0.0000000000000000e+00  1.1613872140619159e+00 3.3801984926998849e-03 0.0000000000000000e+00  3.2037085481145255e-01 2.4268093867183139e-02 0.0000000000000000e+00  -4.0535726365478597e-01 -4.4861952373156794e-01 0.0000000000000000e+00  1.1252823982267570e+00 -3.5423866648321273e-01 0.0000000000000000e+00  1.1528002529146275e+00 -1.0757335566955946e+00 0.0000000000000000e+00  1.3182094450629829e+00 -1.2779863532256372e-01 0.0000000000000000e+00  8.8187288791950480e-01 -1.0799684882741924e-01 0.0000000000000000e+00  1.2400521631111703e+00 5.9275711800629459e-03 0.0000000000000000e+00  6.7731781688498705e-01 -6.1520150415592556e-02 0.0000000000000000e+00  -2.9312526999894012e-03 -4.5229105623275048e-02 0.0000000000000000e+00  1.3867606382072957e+00 5.3507196231929462e-02 0.0000000000000000e+00  1.7611375917973178e+00 -5.1450861297122918e-01 0.0000000000000000e+00  1.2128129890765289e+00 -4.0178431218491226e-02 0.0000000000000000e+00  1.7514228767261464e+00 -9.9446614315069459e-01 0.0000000000000000e+00  1.0955430176400196e+00 -4.7971528638267608e-03 0.0000000000000000e+00  1.5019843331482696e+00 -3.4555512206427226e-02 0.0000000000000000e+00  1.2168740397330393e+00 2.8192534173389707e-02 0.0000000000000000e+00  1.4150302169523017e+00 9.6279439167831049e-02 0.0000000000000000e+00  1.0358001259082337e+00 1.5858182798409753e-01 0.0000000000000000e+00  -1.6711626530724980e-01 5.8008762741893899e-02 0.0000000000000000e+00  1.0938902188305284e+00 7.2784080490360362e-05 0.0000000000000000e+00  1.3705060142297685e+00 4.4324651526471820e-01 0.0000000000000000e+00  1.3407976131415085e+00 -8.6590177428216286e-02 0.0000000000000000e+00  1.2729150807776815e+00 1.7807410364791743e-01 0.0000000000000000e+00  1.2685135493354591e+00 -6.3306498798817556e-02 0.0000000000000000e+00  1.3047785204394298e+00 1.2149355493330882e-01 0.0000000000000000e+00  1.3972257016081229e+00 3.1684346507822636e-01 0.0000000000000000e+00  8.5782563954875624e-01 -1.0295283337023980e-01 0.0000000000000000e+00  1.9240572186725071e+00 -1.6163229671967691e-01 0.0000000000000000e+00  -5.6077046279499498e-02 1.4113123289674745e-01 0.0000000000000000e+00  1.2303234149529916e+00 3.9961234559022646e-02 0.0000000000000000e+00  1.5889564814722958e+00 4.0131712509566397e-01 0.0000000000000000e+00  1.5129993075766859e+00 9.7775014918364350e-02 0.0000000000000000e+00  1.2077993324750191e+00 3.2136343964297188e-02 0.0000000000000000e+00  1.0458627148225368e+00 -6.3727441820098114e-03 0.0000000000000000e+00  1.5332440242471224e+00 -1.1903814973711797e-03 0.0000000000000000e+00  1.4657185535322701e+00 1.7451359973179301e-01 0.0000000000000000e+00  1.5929912043435825e+00 -3.3256302965783184e-02 0.0000000000000000e+00  2.7894971605763072e-03 1.3336451496657742e-01 0.0000000000000000e+00  1.2656536818374584e+00 -3.0820879257291284e-01 0.0000000000000000e+00  1.3772742415108881e+00 -5.7343615867323794e-01 0.0000000000000000e+00  1.2799834514895947e+00 1.3585827330909933e-01 0.0000000000000000e+00  9.9318959613552060e-01 -8.7868591918598485e-03 0.0000000000000000e+00  1.2540198390972150e+00 2.3815783997819712e-01 0.0000000000000000e+00  8.9118822278961818e-01 4.8238004787157229e-02 0.0000000000000000e+00  1.3676373508062114e+00 -2.2351987162089840e-01 0.0000000000000000e+00  1.9007794790870336e+00 1.9190874066846747e-01 0.0000000000000000e+00  8.5045077454046691e-01 1.4171545546989217e-01 0.0000000000000000e+00  1.0554075133786525e+00 -2.3539309752352860e-01 0.0000000000000000e+00  9.4762152216174833e-01 -1.5694145247599972e-01 0.0000000000000000e+00  -3.4059951083098911e-01 -1.9958484497233459e-01 0.0000000000000000e+00  -1.9993092473772328e-01 3.5863223272666897e-03 0.0000000000000000e+00  1.0143365607218822e+00 -1.8277206707539087e-03 0.0000000000000000e+00  9.7251109671510494e-01 -7.9796461271377053e-04 0.0000000000000000e+00  1.2075040259834009e+00 6.0661720672791375e-01 0.0000000000000000e+00  1.3840648851881314e+00 -5.7820432457635788e-02 0.0000000000000000e+00  -4.8065343447655527e-02 3.5659173905923125e-01 0.0000000000000000e+00  9.4019038505235408e-01 4.0527893888856178e-02 0.0000000000000000e+00  1.2900457761788637e+00 2.0304083553758919e-03 0.0000000000000000e+00  8.9418936801546811e-01 -2.3571504561368590e-04 0.0000000000000000e+00  3.9331538074726884e-02 -8.9106845986281005e-02 0.0000000000000000e+00  8.9427851184977725e-01 1.2422122639661921e-01 0.0000000000000000e+00  9.2247465919372906e-01 -5.5652445951610487e-02 0.0000000000000000e+00  1.1049729183422115e+00 1.1489591946785132e+00 0.0000000000000000e+00  1.6840540565610125e+00 9.6813586521620087e-01 0.0000000000000000e+00  4.5590982880883740e-01 6.6741335596824203e-01 0.0000000000000000e+00  3.0333036412114162e-01 -2.3294104163084089e-01 0.0000000000000000e+00  7.6374135403079246e-01 3.2185299855352796e-02 0.0000000000000000e+00  -2.6849936191114501e-02 5.7508948808350641e-02 0.0000000000000000e+00  1.4398707614402226e+00 3.7196886376375615e-01 0.0000000000000000e+00  -5.6636625189576954e-02 -5.2933386961757714e-02 0.0000000000000000e+00  -2.6461309057910741e-02 -1.8055304053531524e-02 0.0000000000000000e+00  1.2533100540869440e+00 -6.7524769138115615e-03 0.0000000000000000e+00  1.2356057417787099e+00 -2.9255735152462327e-03 0.0000000000000000e+00  7.3647640265083802e-01 -9.7401360307535378e-01 0.0000000000000000e+00  1.2603260473394289e+00 -8.3144834809241605e-02 0.0000000000000000e+00  6.1288500674935298e-01 5.4429152417628662e-02 0.0000000000000000e+00  6.4656101107332731e-01 -9.2901834240188934e-03 0.0000000000000000e+00  6.3378661736091024e-01 6.9306031372419171e-03 0.0000000000000000e+00  1.3732749442553494e+00 -4.6752943970347433e-01 0.0000000000000000e+00  5.3879626104734013e-01 6.1779852007043889e-01 0.0000000000000000e+00  4.8679297413630962e-01 2.4263321734733643e-02 0.0000000000000000e+00  8.1680575162949354e-01 -1.0294711145134871e-02 0.0000000000000000e+00  -1.1208925247972920e-01 -6.3927465374102918e-02 0.0000000000000000e+00  9.7353747447423500e-01 2.5123724399564768e-03 0.0000000000000000e+00  1.5490830812007628e+00 2.0242747220499738e-01 0.0000000000000000e+00  8.2190238404034388e-01 -1.3255722683385273e-02 0.0000000000000000e+00  1.8652063725006964e+00 1.1437483340646200e-01 0.0000000000000000e+00  1.4587605369921470e+00 -6.2482268499942780e-03 0.0000000000000000e+00  1.5858490593057075e+00 5.8636011180035785e-01 0.0000000000000000e+00  8.2806310949786766e-01 -4.7257765244990584e-02 0.0000000000000000e+00  1.1822802621528614e+00 -6.5346054114791399e-02 0.0000000000000000e+00  1.3289315204104866e+00 -5.9128862370268577e-02 0.0000000000000000e+00  1.1736896510883270e+00 -8.8411476444343415e-03 0.0000000000000000e+00  1.2120988188327233e+00 -8.7986621495150782e-02 0.0000000000000000e+00  1.1915531120416751e+00 -3.9510355243876069e-02 0.0000000000000000e+00  1.2180876539387255e+00 -1.3593958370904255e-02 0.0000000000000000e+00  1.1422026785427530e+00 -1.3327749567034758e-01 0.0000000000000000e+00  1.4808862508518716e+00 -1.9750407151849025e-01 0.0000000000000000e+00  1.0755413755397247e+00 5.6183314523408905e-02 0.0000000000000000e+00  1.1058037807960146e+00