<?xml version="1.0"?>
<VTKFile type="UnstructuredGrid"  version="0.1"  >
<UnstructuredGrid>
<Piece  NumberOfPoints="3852" NumberOfCells="7360">
<Points>
<DataArray  type="Float64"  NumberOfComponents="3"  format="ascii">0 0 0  0 0.41 0  2.2 0.41 0  2.2 0 0  0.2 0.15 0  0.15 0.2 0  0.2 0.25 0  0.25 0.2 0  0.2097545161007899 0.1509607359798352 0  0.219134171618224 0.153806023374423 0  0.2277785116509268 0.1584265193848371 0  0.2353553390592504 0.1646446609405956 0  0.2415734806150793 0.1722214883489481 0  0.2461939766255306 0.1808658283816641 0  0.249039264020151 0.1902454838991403 0  0.2490392640201666 0.2097545161007811 0  0.2461939766255869 0.2191341716182 0  0.2415734806151802 0.2277785116509009 0  0.2353553390594108 0.235355339059244 0  0.2277785116510524 0.2415734806150789 0  0.2191341716182962 0.2461939766255471 0  0.209754516100834 0.2490392640201561 0  0.1902454838992189 0.2490392640201666 0  0.1808658283818 0.2461939766255869 0  0.1722214883490991 0.2415734806151802 0  0.164644660940756 0.2353553390594108 0  0.1584265193849211 0.2277785116510524 0  0.1538060233744529 0.2191341716182962 0  0.150960735979844 0.209754516100834 0  0.1509607359798352 0.1902454838992101 0  0.153806023374423 0.180865828381776 0  0.1584265193848371 0.1722214883490732 0  0.1646446609405956 0.1646446609407496 0  0.1722214883489481 0.1584265193849207 0  0.1808658283816641 0.1538060233744694 0  0.1902454838991403 0.150960735979849 0  0.09999999999980318 0 0  0.1999999999996354 0 0  0.2999999999994593 0 0  0.3999999999991452 0 0  0.4999999999988309 0 0  0.599999999998495 0 0  0.6999999999982023 0 0  0.7999999999979096 0 0  0.8999999999975735 0 0  0.9999999999972848 0 0  1.099999999997053 0 0  1.199999999997309 0 0  1.299999999997566 0 0  1.399999999997821 0 0  1.49999999999809 0 0  1.599999999998377 0 0  1.69999999999859 0 0  1.799999999998877 0 0  1.899999999999145 0 0  1.999999999999386 0 0  2.099999999999693 0 0  2.2 0.08199999999981657 0  2.2 0.1639999999995688 0  2.2 0.2459999999995603 0  2.2 0.327999999999785 0  2.100000000000048 0.41 0  2.000000000000269 0.41 0  1.900000000000422 0.41 0  1.800000000000679 0.41 0  1.700000000000931 0.41 0  1.600000000001326 0.41 0  1.500000000001665 0.41 0  1.400000000002032 0.41 0  1.300000000002395 0.41 0  1.200000000002644 0.41 0  1.100000000002865 0.41 0  1.000000000002617 0.41 0  0.900000000002368 0.41 0  0.8000000000021192 0.41 0  0.7000000000018587 0.41 0  0.6000000000015786 0.41 0  0.5000000000013736 0.41 0  0.4000000000010933 0.41 0  0.3000000000008329 0.41 0  0.2000000000005997 0.41 0  0.1000000000003003 0.41 0  0 0.3280000000001975 0  0 0.2460000000004372 0  0 0.1640000000004437 0  0 0.08200000000021695 0  0.439039350479032 0.2235433210862024 0  0.3557293424662716 0.1539377961885917 0  0.3450132387946972 0.2399891502764809 0  0.2900756359792848 0.08507884665974728 0  0.2884413411145515 0.3059878288466324 0  0.2102195502178943 0.3385267178242456 0  0.137328909169326 0.3152847369018352 0  0.08490385663776813 0.2628976192695439 0  0.08063302347471875 0.188368977740952 0  0.1005937615311739 0.1162460982751979 0  0.1621860847198582 0.08598327887900903 0  0.3012864586130264 0.1926027915888804 0  1.999140000000448 0.2049999999995642 0  0.2742354912953259 0.1572259708446958 0  0.2871471664627305 0.2264358039321654 0  0.6542851578645765 0.1981889790488746 0  0.2651366296338276 0.2534562504463119 0  0.2371819217149928 0.0977949043027586 0  1.651678197071202 0.2145186615851206 0  1.349674714201118 0.2086119645070391 0  0.9627539291831038 0.2056711800839285 0  0.2360880502985623 0.2733043913425156 0  1.159884231859056 0.2050429640239795 0  0.2502927927237266 0.1358797630898622 0  0.2080582834123368 0.2835355213895352 0  0.1805439632603489 0.278338480667804 0  0.1486243506827335 0.2626014098227327 0  0.1266658889266303 0.2392753516137401 0  0.1179814841582247 0.2069380844236527 0  0.1225167704961566 0.1764957192948648 0  0.1357996569043286 0.1472158045151807 0  0.1619764829264572 0.126298308975886 0  0.1935640279204225 0.116654032325456 0  1.82457000000085 0.2346439024393236 0  0.8027657238591595 0.149277802568535 0  1.498563450727992 0.2632867809910664 0  0.2770405925201826 0.1924926016722167 0  0.470924801584011 0.09138612536042019 0  0.550693598792917 0.2898604497866635 0  0.381089831438127 0.3238078833671811 0  2.074516462495042 0.125705772324225 0  2.083599037046577 0.2769549245607841 0  0.2692296340100125 0.2210592970306522 0  0.7614733075682367 0.2839235561638241 0  1.536698221979284 0.1258192462655419 0  1.231809489345021 0.1282542717942667 0  1.054759157670174 0.1242749934189342 0  1.754535566851005 0.1223197024158991 0  1.90452621597739 0.1324728094649104 0  0.2672409321155211 0.178737994598723 0  1.254401531996246 0.2902808614622134 0  1.04350934597445 0.2986664252663559 0  0.0749710792305778 0.3208721925318313 0  0.5425289614095572 0.165152457827861 0  0.1663208394680799 0.2644065126118989 0  0.1471335176887868 0.2433864007787126 0  0.1345556779484054 0.219852318055334 0  0.131940483167677 0.1932967226753857 0  0.1941574795820069 0.2685534232066453 0  0.2226696214021025 0.1252682734732412 0  0.2193882214552426 0.2661718674478616 0  0.1396865053227576 0.1677617654469802 0  0.8749487631478475 0.295170577255529 0  1.424301820545763 0.1157348858866879 0  1.918515045506933 0.2902236143624367 0  1.744876807925144 0.306628844405037 0  0.2443979144126529 0.254353837216211 0  0.2569054246570621 0.2306780201523878 0  0.2632507216716993 0.2062296523407826 0  0.4609453431326088 0.3138128990490959 0  0.3578015395476809 0.08253318517696946 0  0.2529777826635333 0.155582948480283 0  0.1580369715200277 0.1487041474358234 0  0.652872088668587 0.3101079993636056 0  0.297147332491062 0.2558065812325378 0  0.6188247313471635 0.1101603945467571 0  0.8951149554961688 0.1123812542864208 0  1.592749166085722 0.2985190085719691 0  1.40420309431358 0.2992155383468256 0  1.649189110727275 0.1000387439201274 0  0.2301663900864273 0.1432830242131801 0  0.2064839406544439 0.1345771465164309 0  0.2548204572493643 0.1702022465417566 0  0.1606700828011604 0.2481621709908606 0  0.2605987457303776 0.1928909671966518 0  0.1826942838524941 0.2594610608897559 0  0.1456438338561037 0.2290651013631561 0  0.1387681034994896 0.2058679665896095 0  1.140902260384949 0.3081952438204152 0  2.123402621966431 0.2039515281261525 0  0.7272188829630218 0.1047469619375249 0  0.2060868819369127 0.2616331638469837 0  0.246763614216289 0.2411610007697902 0  0.1405961691450822 0.1819800466423126 0  1.149638048863541 0.08264492713269313 0  0.1809997740285721 0.1365020267363126 0  1.993198408221569 0.09755938404998035 0  0.2287111352430851 0.2547015941619741 0  0.3818716699056283 0.2060398770290832 0  0.39147508084147 0.2656155699545688 0  0.151201080877373 0.1608659990301362 0  0.0542521118046473 0.1382221876243976 0  0.06190301158313444 0.0685934933767465 0  1.317316039400266 0.1015983144534349 0  0.2176417279723976 0.1415790407114221 0  0.2401571300978209 0.1529210337009423 0  0.2618092962776011 0.3566662607419938 0  0.1941527094396574 0.1377969918002053 0  0.9590486261329707 0.3255353063371385 0  0.1708201090411339 0.1447474051814825 0  1.837592370686806 0.3302992722413595 0  0.3197015570210796 0.1212159119695666 0  0.4155281956943757 0.1409543952531078 0  0.0549491513262805 0.2307535706287103 0  0.1668210562270142 0.3605647861782867 0  0.2854688902460447 0.2093700809023571 0  2.013251581901814 0.3292746985146142 0  0.1192191106244758 0.2809901915857802 0  0.2487958366614321 0.04556523514103697 0  0.09061021186838321 0.2240174335271237 0  1.737143840576958 0.20912817770623 0  0.04515017012776967 0.2784708690411318 0  0.5347554646753627 0.08988970780599832 0  0.977104673723579 0.08241628541188413 0  0.336509991617897 0.2888965225844298 0  0.2569238041969055 0.2173711314485607 0  1.906541186051535 0.2125389476829634 0  0.1762338839607841 0.3102437166134606 0  1.449268841077636 0.201011295143529 0  0.8555371485878378 0.2099663446585434 0  1.837208236203613 0.07556229833764837 0  1.264402545318887 0.1992523923163096 0  1.068181074047183 0.2155119107017876 0  0.3158931250274742 0.3421721218291775 0  0.2731958384900449 0.2373435058667565 0  0.09875906484220501 0.1533097574901186 0  0.7355755433976705 0.2066339904079041 0  1.567440499207928 0.2049999999995983 0  1.329829828222916 0.3295825481537897 0  0.8214190147401245 0.07894167681990104 0  1.525459989258997 0.3394220200696043 0  0.1990897327079506 0.06300531675246424 0  0.244701762210989 0.3062404318132603 0  0.1033853772622983 0.3551443431224104 0  0.1178236825374896 0.07148041782551597 0  0.1558198999929474 0.04409380269139784 0  0.3389178979413869 0.198678920661321 0  0.310790717645908 0.2196004930752872 0  2.125022007676643 0.3402049371791425 0  2.130028889485561 0.06535501282233655 0  0.4821161335597635 0.1626909543876269 0  0.2838678108956019 0.1254276466262967 0  0.5062815929260498 0.2376271077316994 0  1.663059277092996 0.3422301118688678 0  1.82292665764828 0.1574809263836269 0  2.052538557905295 0.05717536030732174 0  0.3078251537889645 0.16056368457456 0  0.8108267070172145 0.3390047366820738 0  1.487254632568403 0.0703866281621833 0  0.155004430757041 0.2369517702015699 0  0.1725545045705267 0.2519594403466565 0  0.1445581653510352 0.2167994984574706 0  0.1420710285613199 0.1942747855116325 0  1.461861739291679 0.3471998553985149 0  0.2372128969196007 0.2453440460936858 0  0.1943665918892754 0.2580518465884657 0  0.2452139232912363 0.1629124725160763 0  0.2555786751481889 0.1825885041235872 0  2.14640473333793 0.2790222779730848 0  2.145589594789407 0.1282024626544199 0  0.1486651579751984 0.1726583296292201 0  0.550000000001476 0.3603327897285098 0  0.0505668771231032 0.3660023622363767 0  1.049999999997169 0.05217028468202135 0  1.244771793631775 0.05744029386223062 0  0.1356759337238615 0.1094447816941579 0  0.5872326411628903 0.2223148728195226 0  0.2168458206248643 0.2558159203714847 0  1.749999999998732 0.05166028789524129 0  0.2855257256666041 0.1763246086558152 0  1.92
[...]
<PointData  Vectors="f_22"> 
<DataArray  type="Float64"  Name="f_22"  NumberOfComponents="3" format="ascii">0.0000000000000000e+00 0.0000000000000000e+00 0.0000000000000000e+00  0.0000000000000000e+00 0.0000000000000000e+00 0.0000000000000000e+00  0.0000000000000000e+00 0.0000000000000000e+00 0.0000000000000000e+00  0.0000000000000000e+00 0.0000000000000000e+00 0.0000000000000000e+00  0.0000000000000000e+00 0.0000000000000000e+00 0.0000000000000000e+00  0.0000000000000000e+00 0.0000000000000000e+00 0.0000000000000000e+00  0.0000000000000000e+00 0.0000000000000000e+00 0.0000000000000000e+00  0.0000000000000000e+00 0.0000000000000000e+00 0.0000000000000000e+00  0.0000000000000000e+00 0.0000000000000000e+00 0.0000000000000000e+00  0.0000000000000000e+00 0.0000000000000000e+00 0.0000000000000000e+00  0.0000000000000000e+00 0.0000000000000000e+00 0.0000000000000000e+00  0.0000000000000000e+00 0.0000000000000000e+00 0.0000000000000000e+00  0.0000000000000000e+00 0.0000000000000000e+00 0.0000000000000000e+00  0.0000000000000000e+00 0.0000000000000000e+00 0.0000000000000000e+00  0.0000000000000000e+00 0.0000000000000000e+00 0.0000000000000000e+00  0.0000000000000000e+00 0.0000000000000000e+00 0.0000000000000000e+00  0.0000000000000000e+00 0.0000000000000000e+00 0.0000000000000000e+00  0.0000000000000000e+00 0.0000000000000000e+00 0.0000000000000000e+00  0.0000000000000000e+00 0.0000000000000000e+00 0.0000000000000000e+00  0.0000000000000000e+00 0.0000000000000000e+00 0.0000000000000000e+00  0.0000000000000000e+00 0.0000000000000000e+00 0.0000000000000000e+00  0.0000000000000000e+00 0.0000000000000000e+00 0.0000000000000000e+00  0.0000000000000000e+00 0.0000000000000000e+00 0.0000000000000000e+00  0.0000000000000000e+00 0.0000000000000000e+00 0.0000000000000000e+00  0.0000000000000000e+00 0.0000000000000000e+00 0.0000000000000000e+00  0.0000000000000000e+00 0.0000000000000000e+00 0.0000000000000000e+00  0.0000000000000000e+00 0.0000000000000000e+00 0.0000000000000000e+00  0.0000000000000000e+00 0.0000000000000000e+00 0.0000000000000000e+00  0.0000000000000000e+00 0.0000000000000000e+00 0.0000000000000000e+00  0.0000000000000000e+00 0.0000000000000000e+00 0.0000000000000000e+00  0.0000000000000000e+00 0.0000000000000000e+00 0.0000000000000000e+00  0.0000000000000000e+00 0.0000000000000000e+00 0.0000000000000000e+00  0.0000000000000000e+00 0.0000000000000000e+00 0.0000000000000000e+00  0.0000000000000000e+00 0.0000000000000000e+00 0.0000000000000000e+00  0.0000000000000000e+00 0.0000000000000000e+00 0.0000000000000000e+00  0.0000000000000000e+00 0.0000000000000000e+00 0.0000000000000000e+00  0.0000000000000000e+00 0.0000000000000000e+00 0.0000000000000000e+00  0.0000000000000000e+00 0.0000000000000000e+00 0.0000000000000000e+00  0.0000000000000000e+00 0.0000000000000000e+00 0.0000000000000000e+00  0.0000000000000000e+00 0.0000000000000000e+00 0.0000000000000000e+00  0.0000000000000000e+00 0.0000000000000000e+00 0.0000000000000000e+00  0.0000000000000000e+00 0.0000000000000000e+00 0.0000000000000000e+00  0.0000000000000000e+00 0.0000000000000000e+00 0.0000000000000000e+00  0.0000000000000000e+00 0.0000000000000000e+00 0.0000000000000000e+00  0.0000000000000000e+00 0.0000000000000000e+00 0.0000000000000000e+00  0.0000000000000000e+00 0.0000000000000000e+00 0.0000000000000000e+00  0.0000000000000000e+00 0.0000000000000000e+00 0.0000000000000000e+00  0.0000000000000000e+00 0.0000000000000000e+00 0.0000000000000000e+00  0.0000000000000000e+00 0.0000000000000000e+00 0.0000000000000000e+00  0.0000000000000000e+00 0.0000000000000000e+00 0.0000000000000000e+00  0.0000000000000000e+00 0.0000000000000000e+00 0.0000000000000000e+00  0.0000000000000000e+00 0.0000000000000000e+00 0.0000000000000000e+00  0.0000000000000000e+00 0.0000000000000000e+00 0.0000000000000000e+00  0.0000000000000000e+00 0.0000000000000000e+00 0.0000000000000000e+00  0.0000000000000000e+00 0.0000000000000000e+00 0.0000000000000000e+00  0.0000000000000000e+00 0.0000000000000000e+00 0.0000000000000000e+00  0.0000000000000000e+00 0.0000000000000000e+00 0.0000000000000000e+00  1.1003278814063366e+00 -9.7234674512121082e-05 0.0000000000000000e+00  1.2550435285407360e+00 -6.6426222650430380e-04 0.0000000000000000e+00  1.2557704425166205e+00 -4.9545986885741891e-04 0.0000000000000000e+00  1.1002229939019166e+00 9.9896361090420701e-05 0.0000000000000000e+00  0.0000000000000000e+00 0.0000000000000000e+00 0.0000000000000000e+00  0.0000000000000000e+00 0.0000000000000000e+00 0.0000000000000000e+00  0.0000000000000000e+00 0.0000000000000000e+00 0.0000000000000000e+00  0.0000000000000000e+00 0.0000000000000000e+00 0.0000000000000000e+00  0.0000000000000000e+00 0.0000000000000000e+00 0.0000000000000000e+00  0.0000000000000000e+00 0.0000000000000000e+00 0.0000000000000000e+00  0.0000000000000000e+00 0.0000000000000000e+00 0.0000000000000000e+00  0.0000000000000000e+00 0.0000000000000000e+00 0.0000000000000000e+00  0.0000000000000000e+00 0.0000000000000000e+00 0.0000000000000000e+00  0.0000000000000000e+00 0.0000000000000000e+00 0.0000000000000000e+00  0.0000000000000000e+00 0.0000000000000000e+00 0.0000000000000000e+00  0.0000000000000000e+00 0.0000000000000000e+00 0.0000000000000000e+00  0.0000000000000000e+00 0.0000000000000000e+00 0.0000000000000000e+00  0.0000000000000000e+00 0.0000000000000000e+00 0.0000000000000000e+00  0.0000000000000000e+00 0.0000000000000000e+00 0.0000000000000000e+00  0.0000000000000000e+00 0.0000000000000000e+00 0.0000000000000000e+00  0.0000000000000000e+00 0.0000000000000000e+00 0.0000000000000000e+00  0.0000000000000000e+00 0.0000000000000000e+00 0.0000000000000000e+00  0.0000000000000000e+00 0.0000000000000000e+00 0.0000000000000000e+00  0.0000000000000000e+00 0.0000000000000000e+00 0.0000000000000000e+00  0.0000000000000000e+00 0.0000000000000000e+00 0.0000000000000000e+00  9.6000005050325155e-01 0.0000000000000000e+00 0.0000000000000000e+00  1.4400000757561997e+00 0.0000000000000000e+00 0.0000000000000000e+00  1.4400000757587781e+00 0.0000000000000000e+00 0.0000000000000000e+00  9.6000005050689108e-01 0.0000000000000000e+00 0.0000000000000000e+00  -1.5975140443516053e-01 4.5444398686445786e-01 0.0000000000000000e+00  5.1067960350438224e-01 -7.7721748305919691e-03 0.0000000000000000e+00  -3.6637865152202770e-02 -4.0456751300666526e-02 0.0000000000000000e+00  1.8781168301783810e+00 -5.4496180798078511e-02 0.0000000000000000e+00  1.9165622165511997e+00 1.0280537577752895e-01 0.0000000000000000e+00  1.4484161764631043e+00 2.1561406507990655e-01 0.0000000000000000e+00  1.3075466910722993e+00 3.4543234958668972e-01 0.0000000000000000e+00  1.3287826100302040e+00 2.4910119780870182e-01 0.0000000000000000e+00  1.3068004264536384e+00 -8.5488576979858497e-02 0.0000000000000000e+00  1.2688911763306270e+00 -3.3575470335472274e-01 0.0000000000000000e+00  1.4211894099369597e+00 -3.8403658130801910e-01 0.0000000000000000e+00  -1.9547423381340173e-01 -1.6106230138357727e-01 0.0000000000000000e+00  1.2538800912814805e+00 -1.2460163191702327e-02 0.0000000000000000e+00  7.9636736510800790e-02 -1.5088614705859885e-01 0.0000000000000000e+00  -1.4058721273325411e-01 -3.2917788489171602e-02 0.0000000000000000e+00  7.3772348327110848e-01 -6.0595653851515452e-01 0.0000000000000000e+00  2.4691801534033644e-01 1.8864889157149994e-02 0.0000000000000000e+00  1.9028781686945659e+00 -2.4380601583788761e-01 0.0000000000000000e+00  1.2047155950535906e+00 -6.1785210092867915e-02 0.0000000000000000e+00  1.4240665266831747e+00 6.7629334912322703e-02 0.0000000000000000e+00  1.4357417519555771e+00 -1.7830456168139272e-01 0.0000000000000000e+00  1.7059366194225623e+00 2.0423998931071188e-01 0.0000000000000000e+00  1.3806667753182378e+00 -8.5683935425307847e-02 0.0000000000000000e+00  9.1005373992714444e-01 -7.3928901833379981e-02 0.0000000000000000e+00  1.9829482016712545e+00 4.3910782296774425e-01 0.0000000000000000e+00  1.8502956305209004e+00 6.3847373152553133e-01 0.0000000000000000e+00  1.4816805317972035e+00 7.6259583893941885e-01 0.0000000000000000e+00  1.1399472057640969e+00 5.4413824034912373e-01 0.0000000000000000e+00  9.3793222725318925e-01 8.5317002973287440e-02 0.0000000000000000e+00  9.8876515933413378e-01 -4.1858293882530062e-01 0.0000000000000000e+00  1.2999170320622624e+00 -7.1754672257659624e-01 0.0000000000000000e+00  1.6624682911877131e+00 -7.3216825867131297e-01 0.0000000000000000e+00  1.9225060131079821e+00 -5.3822867620306203e-01 0.0000000000000000e+00  1.2567445320038804e+00 1.7332842142593639e-02 0.0000000000000000e+00  1.6534176588965237e+00 3.7630883250783176e-01 0.0000000000000000e+00  1.5046630028921260e+00 -3.5263582823587703e-03 0.0000000000000000e+00  -1.1585533053026494e-01 -1.5437891892012440e-01 0.0000000000000000e+00  1.5270408185938353e+00 1.9922223686692406e-01 0.0000000000000000e+00  1.8686347688017062e+00 -5.5787741039423844e-01 0.0000000000000000e+00  1.8349562222366609e+00 -1.2521650534360038e-02 0.0000000000000000e+00  1.2302947277018308e+00 -1.7900614930523686e-03 0.0000000000000000e+00  1.2444456005458082e+00 -3.5376143571946360e-03 0.0000000000000000e+00  -9.7691068164180439e-02 -8.2084081736942885e-03 0.0000000000000000e+00  9.4379907466777280e-01 1.1996885850627417e-01 0.0000000000000000e+00  1.1987678179932559e+00 -3.6045347276995293e-02 0.0000000000000000e+00  1.5392094457653227e+00 4.7487866083420337e-02 0.0000000000000000e+00  1.2524961082327988e+00 -3.8276065551337758e-02 0.0000000000000000e+00  1.2442875148707342e+00 -3.9039182429694542e-03 0.0000000000000000e+00  1.2160341714481013e+00 -1.9337501580189492e-03 0.0000000000000000e+00  -6.6223320361027460e-02 -1.9152629214811528e-01 0.0000000000000000e+00  1.2979267875301146e+00 -2.2585165274058877e-02 0.0000000000000000e+00  1.1947576003181111e+00 -1.1179012316366518e-03 0.0000000000000000e+00  1.0760397713364520e+00 1.6557092106671190e-01 0.0000000000000000e+00  -4.9443921829473922e-03 8.6025364754743511e-02 0.0000000000000000e+00  1.7296425660931469e+00 8.4922954756649260e-01 0.0000000000000000e+00  1.2227904557124558e+00 9.2778135668187545e-01 0.0000000000000000e+00  7.5424495231830768e-01 4.9098775993248145e-01 0.0000000000000000e+00  6.4711739460861517e-01 -2.1949068840224964e-01 0.0000000000000000e+00  1.9973421328255057e+00 5.9317441598738330e-01 0.0000000000000000e+00  1.9320196604348334e+00 -3.1054282928252730e-01 0.0000000000000000e+00  1.4686741780055488e+00 2.0738347443493202e-01 0.0000000000000000e+00  9.7358076445666375e-01 -8.2013027277203843e-01 0.0000000000000000e+00  1.6332570604000569e+00 -1.2710580853421388e-01 0.0000000000000000e+00  1.2542983040742308e+00 -2.5960992537904175e-02 0.0000000000000000e+00  1.2414173224569218e+00 1.5100251396326426e-05 0.0000000000000000e+00  1.2188855694614908e+00 -2.8107899717073640e-03 0.0000000000000000e+00  2.6373811289957211e-01 3.5583589414117753e-02 0.0000000000000000e+00  -6.6421809719036704e-02 4.8092028374073323e-02 0.0000000000000000e+00  -5.5514327353786724e-02 -7.4376762807575533e-02 0.0000000000000000e+00  1.9757914784440738e+00 -1.7084754550385453e-01 0.0000000000000000e+00  1.8513557366002782e+00 1.4535445075361120e-01 0.0000000000000000e+00  -2.8894938368337355e-03 -1.0685485122355538e-01 0.0000000000000000e+00  1.5252114026304693e+00 -1.0594107988969634e+00 0.0000000000000000e+00  1.2504806075818704e+00 -9.0528714755493622e-02 0.0000000000000000e+00  3.4617136896490869e-01 -4.0301566812414792e-02 0.0000000000000000e+00  1.6026637294010577e+00 -5.3976607592016050e-02 0.0000000000000000e+00  1.1543991936365958e+00 -1.5062430690053683e-01 0.0000000000000000e+00  1.2302489857026258e+00 6.9681577377104578e-02 0.0000000000000000e+00  1.3504215711550696e+00 3.7885169539630885e-02 0.0000000000000000e+00  1.2060909122923127e+00 -1.6093904401566380e-02 0.0000000000000000e+00  4.2562755360138305e-01 -3.9061883819029287e-02 0.0000000000000000e+00  1.7164909720364754e+00 -3.4780222835339447e-01 0.0000000000000000e+00  -6.2293753747075187e-02 -1.5365298867241073e-01 0.0000000000000000e+00  1.4954922129605015e+00 1.1013408885229352e+00 0.0000000000000000e+00  -4.5216633333738473e-02 -1.3860801472759271e-01 0.0000000000000000e+00  1.8650594948622714e+00 7.6345359758837694e-01 0.0000000000000000e+00  8.3143371220638929e-01 9.0211014115446519e-01 0.0000000000000000e+00  4.2753947535624565e-01 1.7430258730451603e-01 0.0000000000000000e+00  1.1403276656163432e+00 1.0334150720175732e-01 0.0000000000000000e+00  1.2585179506152007e+00 -2.6638004237336645e-03 0.0000000000000000e+00  1.6941020122857906e+00 4.3584602506801612e-01 0.0000000000000000e+00  1.3698689736550502e+00 2.4469896526886792e-01 0.0000000000000000e+00  -4.8136926215217139e-02 6.2262548662639354e-02 0.0000000000000000e+00  6.0107158117870640e-01 -6.5354983266080635e-01 0.0000000000000000e+00  9.8098905449851925e-01 4.6145403320272511e-02 0.0000000000000000e+00  1.9540870411748819e+00 -8.1111268223017496e-01 0.0000000000000000e+00  1.1673071716065822e+00 -8.0328839330271070e-04 0.0000000000000000e+00  2.9175285973138543e-01 2.4016779646061338e-02 0.0000000000000000e+00  -4.2761277380007140e-01 9.7076014721558843e-02 0.0000000000000000e+00  7.7817163580633630e-01 4.4630617580786486e-02 0.0000000000000000e+00  1.1756638854454227e+00 -1.1072473678572137e+00 0.0000000000000000e+00  1.3207097683768789e+00 -1.4211245846466167e-01 0.0000000000000000e+00  8.8558938434112611e-01 -1.1602334634642335e-01 0.0000000000000000e+00  1.1217000480979666e+00 -1.2112044429820729e-01 0.0000000000000000e+00  7.0606492087002615e-01 -6.3171859295133026e-02 0.0000000000000000e+00  -4.8632545236763402e-03 -6.0448889653587135e-02 0.0000000000000000e+00  1.3920488568669263e+00 8.2299599516836144e-02 0.0000000000000000e+00  1.8008464423545585e+00 -5.2123635537291357e-01 0.0000000000000000e+00  1.0441800228017541e+00 -1.5681552095182105e-01 0.0000000000000000e+00  1.7837861141549762e+00 -1.0130044776164850e+00 0.0000000000000000e+00  1.0897459601084776e+00 1.8454307292299415e-03 0.0000000000000000e+00  1.7169963270209221e+00 1.9207294032408187e-02 0.0000000000000000e+00  1.2889733803796142e+00 4.6064645628951195e-01 0.0000000000000000e+00  1.4133042594786864e+00 7.9536729307918247e-02 0.0000000000000000e+00  1.0228369456543365e+00 1.6055027766424995e-01 0.0000000000000000e+00  -1.7052111977218429e-01 -8.7413808885835595e-02 0.0000000000000000e+00  1.0989961383846516e+00 -2.7432881710946445e-03 0.0000000000000000e+00  1.3562712152747773e+00 4.2568671013349951e-01 0.0000000000000000e+00  1.3540730711927473e+00 -7.4484234460041251e-02 0.0000000000000000e+00  1.2687223803191736e+00 1.5157159803958653e-01 0.0000000000000000e+00  1.2092540355484147e+00 2.9527561491524731e-02 0.0000000000000000e+00  1.3027900177446374e+00 1.1108864337718742e-01 0.0000000000000000e+00  1.4571691585305646e+00 -2.2040377173768021e-02 0.0000000000000000e+00  1.0440008544320942e+00 3.6049343140240014e-03 0.0000000000000000e+00  1.7589659965976299e+00 3.2198040042090972e-03 0.0000000000000000e+00  -3.6779157161723412e-02 1.3226960597239401e-03 0.0000000000000000e+00  1.2586133687076095e+00 -1.9704585637861118e-02 0.0000000000000000e+00  1.5665418770176651e+00 4.0284143695303432e-01 0.0000000000000000e+00  1.2663257323508037e+00 1.0856834723049365e-01 0.0000000000000000e+00  1.3735832890327113e+00 2.7834270685850632e-01 0.0000000000000000e+00  1.0618118101326142e+00 3.8530519661075266e-03 0.0000000000000000e+00  1.5532069836735822e+00 9.4754373016307195e-02 0.0000000000000000e+00  1.6686309855720747e+00 -1.2814336592857525e-01 0.0000000000000000e+00  1.6292501689381391e+00 3.5844734102041621e-02 0.0000000000000000e+00  -6.0245206837037685e-02 1.6024466999524995e-02 0.0000000000000000e+00  1.2732853381156950e+00 -3.3334132887368734e-01 0.0000000000000000e+00  1.0319386832158952e+00 1.5483988542566604e-01 0.0000000000000000e+00  1.3096506807972563e+00 -6.0885611355751983e-02 0.0000000000000000e+00  9.8117879695266652e-01 1.7543727214230951e-02 0.0000000000000000e+00  8.8521025245575213e-01 2.3753276845511454e-03 0.0000000000000000e+00  9.2647478055505672e-01 6.1264893978923873e-02 0.0000000000000000e+00  1.3882719723843486e+00 -2.2074211524040707e-01 0.0000000000000000e+00  1.8744165386747020e+00 2.2296174171931279e-01 0.0000000000000000e+00  8.4231275103240488e-01 1.3635849756856785e-01 0.0000000000000000e+00  1.0674569132417755e+00 -2.4507836635677860e-01 0.0000000000000000e+00  9.6456934370783931e-01 -1.5962229202086081e-01 0.0000000000000000e+00  -3.1993929688680739e-01 -1.2057362214462211e-01 0.0000000000000000e+00  -2.3016884767349371e-01 -8.4199043162221168e-02 0.0000000000000000e+00  1.0195469389466836e+00 -7.9805698119228753e-05 0.0000000000000000e+00  9.8337295718379614e-01 -2.2338948763073820e-04 0.0000000000000000e+00  3.3457324120255916e-01 5.1985975881498769e-01 0.0000000000000000e+00  1.5118800060072963e+00 -7.0058240988868314e-02 0.0000000000000000e+00  9.3498142126896888e-01 -5.8839641214811694e-02 0.0000000000000000e+00  1.0102685935905165e+00 2.5422687456351789e-03 0.0000000000000000e+00  1.2293185824985677e+00 2.3519248875362463e-02 0.0000000000000000e+00  9.0622039018415823e-01 -4.8422553971460083e-04 0.0000000000000000e+00  1.4821232270156087e-01 -1.6362299072106587e-01 0.0000000000000000e+00  1.1812165764203080e+00 1.0892509536728613e-03 0.0000000000000000e+00  9.5887497872804239e-01 -1.6605639669996512e-02 0.0000000000000000e+00  1.0789912807727775e+00 1.1163263691302237e+00 0.0000000000000000e+00  1.6451464479376374e+00 9.4811154622473837e-01 0.0000000000000000e+00  4.4400836798909588e-01 6.2635740714227084e-01 0.0000000000000000e+00  3.0713540581637172e-01 -2.7559503805338476e-01 0.0000000000000000e+00  8.0210749701735229e-01 4.9118135979987765e-02 0.0000000000000000e+00  -2.5114045211531641e-02 4.8086398982019107e-02 0.0000000000000000e+00  1.3895005583480622e+00 3.6484523580174921e-01 0.0000000000000000e+00  -6.5945454477619861e-02 -9.1035913031076041e-02 0.0000000000000000e+00  -4.4710180344363387e-02 -1.4161243346658595e-01 0.0000000000000000e+00  1.2400733804659549e+00 -8.3584856302826261e-04 0.0000000000000000e+00  1.2349296908997882e+00 -8.9263244489169778e-04 0.0000000000000000e+00  7.5442398010868505e-01 -1.0105590808970182e+00 0.0000000000000000e+00  1.0372890054137649e+00 -1.8142289785437860e-01 0.0000000000000000e+00  6.1052415997878884e-01 5.0733748020325063e-02 0.0000000000000000e+00  6.0855375336107886e-01 2.7665137954760860e-02 0.0000000000000000e+00  6.1377680101849319e-01 -3.2984141549224119e-02 0.0000000000000000e+00  1.3903334924179935e+00 -4.8303603565796688e-01 0.0000000000000000e+00  1.1768767792790396e+00 -7.3150397714902404e-01 0.0000000000000000e+00  4.5299941966371071e-01 2.4861086338997713e-02 0.0000000000000000e+00  8.4975232450492277e-01 -2.0504768360809032e-03 0.0000000000000000e+00  -6.9327154141750211e-02 -1.8913423907902255e-01 0.0000000000000000e+00  9.7888706051583552e-01 4.0748995658101327e-04 0.0000000000000000e+00  1.3977004043439731e+00 1.6159845364221756e-01 0.0000000000000000e+00  8.3765088403455024e-01 -2.0116149222214403e-02 0.0000000000000000e+00  1.7607913321448267e+00 1.2845000450102906e-01 0.0000000000000000e+00  1.4589047954415797e+00 -1.8774921773172654e-02 0.0000000000000000e+00  1.5620372381947849e+00 5.7561710077540074e-01 0.0000000000000000e+00  9.7954588977409596e-01 9.7033012581218089e-02 0.0000000000000000e+00  1.3033256486834317e+00 5.8295570499848947e-03 0.0000000000000000e+00  1.1922077999796752e+00 -1.8619878925725798e-02 0.0000000000000000e+00  1.2631803807671707e+00 -4.9722247418673898e-02 0.0000000000000000e+00  1.2779296964226241e+00 2.8044206217733042e-02 0.0000000000000000e+00  1.2398065415085098e+00 -5.8954845576370072e-03 0.0000000000000000e+00  1.2895462996208056e+00 4.6148540862018778e-02 0.0000000000000000e+00  1.6069268882417935e+00 2.4360270115112995e-02 0.0000000000000000e+00  1.6421106383514603e+00 1.1935764528245098e-02 0.0000000000000000e+00  1.3234779747636156e+00 6.2280932836195034e-02 0.0000000000000000e+00  1.3850170495041660e+0