<?xml version="1.0"?>
<VTKFile type="UnstructuredGrid"  version="0.1"  >
<UnstructuredGrid>
<Piece  NumberOfPoints="3852" NumberOfCells="7360">
<Points>
<DataArray  type="Float64"  NumberOfComponents="3"  format="ascii">0 0 0  0 0.41 0  2.2 0.41 0  2.2 0 0  0.2 0.15 0  0.15 0.2 0  0.2 0.25 0  0.25 0.2 0  0.2097545161007899 0.1509607359798352 0  0.219134171618224 0.153806023374423 0  0.2277785116509268 0.1584265193848371 0  0.2353553390592504 0.1646446609405956 0  0.2415734806150793 0.1722214883489481 0  0.2461939766255306 0.1808658283816641 0  0.249039264020151 0.1902454838991403 0  0.2490392640201666 0.2097545161007811 0  0.2461939766255869 0.2191341716182 0  0.2415734806151802 0.2277785116509009 0  0.2353553390594108 0.235355339059244 0  0.2277785116510524 0.2415734806150789 0  0.2191341716182962 0.2461939766255471 0  0.209754516100834 0.2490392640201561 0  0.1902454838992189 0.2490392640201666 0  0.1808658283818 0.2461939766255869 0  0.1722214883490991 0.2415734806151802 0  0.164644660940756 0.2353553390594108 0  0.1584265193849211 0.2277785116510524 0  0.1538060233744529 0.2191341716182962 0  0.150960735979844 0.209754516100834 0  0.1509607359798352 0.1902454838992101 0  0.153806023374423 0.180865828381776 0  0.1584265193848371 0.1722214883490732 0  0.1646446609405956 0.1646446609407496 0  0.1722214883489481 0.1584265193849207 0  0.1808658283816641 0.1538060233744694 0  0.1902454838991403 0.150960735979849 0  0.09999999999980318 0 0  0.1999999999996354 0 0  0.2999999999994593 0 0  0.3999999999991452 0 0  0.4999999999988309 0 0  0.599999999998495 0 0  0.6999999999982023 0 0  0.7999999999979096 0 0  0.8999999999975735 0 0  0.9999999999972848 0 0  1.099999999997053 0 0  1.199999999997309 0 0  1.299999999997566 0 0  1.399999999997821 0 0  1.49999999999809 0 0  1.599999999998377 0 0  1.69999999999859 0 0  1.799999999998877 0 0  1.899999999999145 0 0  1.999999999999386 0 0  2.099999999999693 0 0  2.2 0.08199999999981657 0  2.2 0.1639999999995688 0  2.2 0.2459999999995603 0  2.2 0.327999999999785 0  2.100000000000048 0.41 0  2.000000000000269 0.41 0  1.900000000000422 0.41 0  1.800000000000679 0.41 0  1.700000000000931 0.41 0  1.600000000001326 0.41 0  1.500000000001665 0.41 0  1.400000000002032 0.41 0  1.300000000002395 0.41 0  1.200000000002644 0.41 0  1.100000000002865 0.41 0  1.000000000002617 0.41 0  0.900000000002368 0.41 0  0.8000000000021192 0.41 0  0.7000000000018587 0.41 0  0.6000000000015786 0.41 0  0.5000000000013736 0.41 0  0.4000000000010933 0.41 0  0.3000000000008329 0.41 0  0.2000000000005997 0.41 0  0.1000000000003003 0.41 0  0 0.3280000000001975 0  0 0.2460000000004372 0  0 0.1640000000004437 0  0 0.08200000000021695 0  0.439039350479032 0.2235433210862024 0  0.3557293424662716 0.1539377961885917 0  0.3450132387946972 0.2399891502764809 0  0.2900756359792848 0.08507884665974728 0  0.2884413411145515 0.3059878288466324 0  0.2102195502178943 0.3385267178242456 0  0.137328909169326 0.3152847369018352 0  0.08490385663776813 0.2628976192695439 0  0.08063302347471875 0.188368977740952 0  0.1005937615311739 0.1162460982751979 0  0.1621860847198582 0.08598327887900903 0  0.3012864586130264 0.1926027915888804 0  1.999140000000448 0.2049999999995642 0  0.2742354912953259 0.1572259708446958 0  0.2871471664627305 0.2264358039321654 0  0.6542851578645765 0.1981889790488746 0  0.2651366296338276 0.2534562504463119 0  0.2371819217149928 0.0977949043027586 0  1.651678197071202 0.2145186615851206 0  1.349674714201118 0.2086119645070391 0  0.9627539291831038 0.2056711800839285 0  0.2360880502985623 0.2733043913425156 0  1.159884231859056 0.2050429640239795 0  0.2502927927237266 0.1358797630898622 0  0.2080582834123368 0.2835355213895352 0  0.1805439632603489 0.278338480667804 0  0.1486243506827335 0.2626014098227327 0  0.1266658889266303 0.2392753516137401 0  0.1179814841582247 0.2069380844236527 0  0.1225167704961566 0.1764957192948648 0  0.1357996569043286 0.1472158045151807 0  0.1619764829264572 0.126298308975886 0  0.1935640279204225 0.116654032325456 0  1.82457000000085 0.2346439024393236 0  0.8027657238591595 0.149277802568535 0  1.498563450727992 0.2632867809910664 0  0.2770405925201826 0.1924926016722167 0  0.470924801584011 0.09138612536042019 0  0.550693598792917 0.2898604497866635 0  0.381089831438127 0.3238078833671811 0  2.074516462495042 0.125705772324225 0  2.083599037046577 0.2769549245607841 0  0.2692296340100125 0.2210592970306522 0  0.7614733075682367 0.2839235561638241 0  1.536698221979284 0.1258192462655419 0  1.231809489345021 0.1282542717942667 0  1.054759157670174 0.1242749934189342 0  1.754535566851005 0.1223197024158991 0  1.90452621597739 0.1324728094649104 0  0.2672409321155211 0.178737994598723 0  1.254401531996246 0.2902808614622134 0  1.04350934597445 0.2986664252663559 0  0.0749710792305778 0.3208721925318313 0  0.5425289614095572 0.165152457827861 0  0.1663208394680799 0.2644065126118989 0  0.1471335176887868 0.2433864007787126 0  0.1345556779484054 0.219852318055334 0  0.131940483167677 0.1932967226753857 0  0.1941574795820069 0.2685534232066453 0  0.2226696214021025 0.1252682734732412 0  0.2193882214552426 0.2661718674478616 0  0.1396865053227576 0.1677617654469802 0  0.8749487631478475 0.295170577255529 0  1.424301820545763 0.1157348858866879 0  1.918515045506933 0.2902236143624367 0  1.744876807925144 0.306628844405037 0  0.2443979144126529 0.254353837216211 0  0.2569054246570621 0.2306780201523878 0  0.2632507216716993 0.2062296523407826 0  0.4609453431326088 0.3138128990490959 0  0.3578015395476809 0.08253318517696946 0  0.2529777826635333 0.155582948480283 0  0.1580369715200277 0.1487041474358234 0  0.652872088668587 0.3101079993636056 0  0.297147332491062 0.2558065812325378 0  0.6188247313471635 0.1101603945467571 0  0.8951149554961688 0.1123812542864208 0  1.592749166085722 0.2985190085719691 0  1.40420309431358 0.2992155383468256 0  1.649189110727275 0.1000387439201274 0  0.2301663900864273 0.1432830242131801 0  0.2064839406544439 0.1345771465164309 0  0.2548204572493643 0.1702022465417566 0  0.1606700828011604 0.2481621709908606 0  0.2605987457303776 0.1928909671966518 0  0.1826942838524941 0.2594610608897559 0  0.1456438338561037 0.2290651013631561 0  0.1387681034994896 0.2058679665896095 0  1.140902260384949 0.3081952438204152 0  2.123402621966431 0.2039515281261525 0  0.7272188829630218 0.1047469619375249 0  0.2060868819369127 0.2616331638469837 0  0.246763614216289 0.2411610007697902 0  0.1405961691450822 0.1819800466423126 0  1.149638048863541 0.08264492713269313 0  0.1809997740285721 0.1365020267363126 0  1.993198408221569 0.09755938404998035 0  0.2287111352430851 0.2547015941619741 0  0.3818716699056283 0.2060398770290832 0  0.39147508084147 0.2656155699545688 0  0.151201080877373 0.1608659990301362 0  0.0542521118046473 0.1382221876243976 0  0.06190301158313444 0.0685934933767465 0  1.317316039400266 0.1015983144534349 0  0.2176417279723976 0.1415790407114221 0  0.2401571300978209 0.1529210337009423 0  0.2618092962776011 0.3566662607419938 0  0.1941527094396574 0.1377969918002053 0  0.9590486261329707 0.3255353063371385 0  0.1708201090411339 0.1447474051814825 0  1.837592370686806 0.3302992722413595 0  0.3197015570210796 0.1212159119695666 0  0.4155281956943757 0.1409543952531078 0  0.0549491513262805 0.2307535706287103 0  0.1668210562270142 0.3605647861782867 0  0.2854688902460447 0.2093700809023571 0  2.013251581901814 0.3292746985146142 0  0.1192191106244758 0.2809901915857802 0  0.2487958366614321 0.04556523514103697 0  0.09061021186838321 0.2240174335271237 0  1.737143840576958 0.20912817770623 0  0.04515017012776967 0.2784708690411318 0  0.5347554646753627 0.08988970780599832 0  0.977104673723579 0.08241628541188413 0  0.336509991617897 0.2888965225844298 0  0.2569238041969055 0.2173711314485607 0  1.906541186051535 0.2125389476829634 0  0.1762338839607841 0.3102437166134606 0  1.449268841077636 0.201011295143529 0  0.8555371485878378 0.2099663446585434 0  1.837208236203613 0.07556229833764837 0  1.264402545318887 0.1992523923163096 0  1.068181074047183 0.2155119107017876 0  0.3158931250274742 0.3421721218291775 0  0.2731958384900449 0.2373435058667565 0  0.09875906484220501 0.1533097574901186 0  0.7355755433976705 0.2066339904079041 0  1.567440499207928 0.2049999999995983 0  1.329829828222916 0.3295825481537897 0  0.8214190147401245 0.07894167681990104 0  1.525459989258997 0.3394220200696043 0  0.1990897327079506 0.06300531675246424 0  0.244701762210989 0.3062404318132603 0  0.1033853772622983 0.3551443431224104 0  0.1178236825374896 0.07148041782551597 0  0.1558198999929474 0.04409380269139784 0  0.3389178979413869 0.198678920661321 0  0.310790717645908 0.2196004930752872 0  2.125022007676643 0.3402049371791425 0  2.130028889485561 0.06535501282233655 0  0.4821161335597635 0.1626909543876269 0  0.2838678108956019 0.1254276466262967 0  0.5062815929260498 0.2376271077316994 0  1.663059277092996 0.3422301118688678 0  1.82292665764828 0.1574809263836269 0  2.052538557905295 0.05717536030732174 0  0.3078251537889645 0.16056368457456 0  0.8108267070172145 0.3390047366820738 0  1.487254632568403 0.0703866281621833 0  0.155004430757041 0.2369517702015699 0  0.1725545045705267 0.2519594403466565 0  0.1445581653510352 0.2167994984574706 0  0.1420710285613199 0.1942747855116325 0  1.461861739291679 0.3471998553985149 0  0.2372128969196007 0.2453440460936858 0  0.1943665918892754 0.2580518465884657 0  0.2452139232912363 0.1629124725160763 0  0.2555786751481889 0.1825885041235872 0  2.14640473333793 0.2790222779730848 0  2.145589594789407 0.1282024626544199 0  0.1486651579751984 0.1726583296292201 0  0.550000000001476 0.3603327897285098 0  0.0505668771231032 0.3660023622363767 0  1.049999999997169 0.05217028468202135 0  1.244771793631775 0.05744029386223062 0  0.1356759337238615 0.1094447816941579 0  0.5872326411628903 0.2223148728195226 0  0.2168458206248643 0.2558159203714847 0  1.749999999998732 0.05166028789524129 0  0.2855257256666041 0.1763246086558152 0  1.92
[...]
<PointData  Vectors="f_22"> 
<DataArray  type="Float64"  Name="f_22"  NumberOfComponents="3" format="ascii">0.0000000000000000e+00 0.0000000000000000e+00 0.0000000000000000e+00  0.0000000000000000e+00 0.0000000000000000e+00 0.0000000000000000e+00  0.0000000000000000e+00 0.0000000000000000e+00 0.0000000000000000e+00  0.0000000000000000e+00 0.0000000000000000e+00 0.0000000000000000e+00  0.0000000000000000e+00 0.0000000000000000e+00 0.0000000000000000e+00  0.0000000000000000e+00 0.0000000000000000e+00 0.0000000000000000e+00  0.0000000000000000e+00 0.0000000000000000e+00 0.0000000000000000e+00  0.0000000000000000e+00 0.0000000000000000e+00 0.0000000000000000e+00  0.0000000000000000e+00 0.0000000000000000e+00 0.0000000000000000e+00  0.0000000000000000e+00 0.0000000000000000e+00 0.0000000000000000e+00  0.0000000000000000e+00 0.0000000000000000e+00 0.0000000000000000e+00  0.0000000000000000e+00 0.0000000000000000e+00 0.0000000000000000e+00  0.0000000000000000e+00 0.0000000000000000e+00 0.0000000000000000e+00  0.0000000000000000e+00 0.0000000000000000e+00 0.0000000000000000e+00  0.0000000000000000e+00 0.0000000000000000e+00 0.0000000000000000e+00  0.0000000000000000e+00 0.0000000000000000e+00 0.0000000000000000e+00  0.0000000000000000e+00 0.0000000000000000e+00 0.0000000000000000e+00  0.0000000000000000e+00 0.0000000000000000e+00 0.0000000000000000e+00  0.0000000000000000e+00 0.0000000000000000e+00 0.0000000000000000e+00  0.0000000000000000e+00 0.0000000000000000e+00 0.0000000000000000e+00  0.0000000000000000e+00 0.0000000000000000e+00 0.0000000000000000e+00  0.0000000000000000e+00 0.0000000000000000e+00 0.0000000000000000e+00  0.0000000000000000e+00 0.0000000000000000e+00 0.0000000000000000e+00  0.0000000000000000e+00 0.0000000000000000e+00 0.0000000000000000e+00  0.0000000000000000e+00 0.0000000000000000e+00 0.0000000000000000e+00  0.0000000000000000e+00 0.0000000000000000e+00 0.0000000000000000e+00  0.0000000000000000e+00 0.0000000000000000e+00 0.0000000000000000e+00  0.0000000000000000e+00 0.0000000000000000e+00 0.0000000000000000e+00  0.0000000000000000e+00 0.0000000000000000e+00 0.0000000000000000e+00  0.0000000000000000e+00 0.0000000000000000e+00 0.0000000000000000e+00  0.0000000000000000e+00 0.0000000000000000e+00 0.0000000000000000e+00  0.0000000000000000e+00 0.0000000000000000e+00 0.0000000000000000e+00  0.0000000000000000e+00 0.0000000000000000e+00 0.0000000000000000e+00  0.0000000000000000e+00 0.0000000000000000e+00 0.0000000000000000e+00  0.0000000000000000e+00 0.0000000000000000e+00 0.0000000000000000e+00  0.0000000000000000e+00 0.0000000000000000e+00 0.0000000000000000e+00  0.0000000000000000e+00 0.0000000000000000e+00 0.0000000000000000e+00  0.0000000000000000e+00 0.0000000000000000e+00 0.0000000000000000e+00  0.0000000000000000e+00 0.0000000000000000e+00 0.0000000000000000e+00  0.0000000000000000e+00 0.0000000000000000e+00 0.0000000000000000e+00  0.0000000000000000e+00 0.0000000000000000e+00 0.0000000000000000e+00  0.0000000000000000e+00 0.0000000000000000e+00 0.0000000000000000e+00  0.0000000000000000e+00 0.0000000000000000e+00 0.0000000000000000e+00  0.0000000000000000e+00 0.0000000000000000e+00 0.0000000000000000e+00  0.0000000000000000e+00 0.0000000000000000e+00 0.0000000000000000e+00  0.0000000000000000e+00 0.0000000000000000e+00 0.0000000000000000e+00  0.0000000000000000e+00 0.0000000000000000e+00 0.0000000000000000e+00  0.0000000000000000e+00 0.0000000000000000e+00 0.0000000000000000e+00  0.0000000000000000e+00 0.0000000000000000e+00 0.0000000000000000e+00  0.0000000000000000e+00 0.0000000000000000e+00 0.0000000000000000e+00  0.0000000000000000e+00 0.0000000000000000e+00 0.0000000000000000e+00  0.0000000000000000e+00 0.0000000000000000e+00 0.0000000000000000e+00  0.0000000000000000e+00 0.0000000000000000e+00 0.0000000000000000e+00  0.0000000000000000e+00 0.0000000000000000e+00 0.0000000000000000e+00  0.0000000000000000e+00 0.0000000000000000e+00 0.0000000000000000e+00  0.0000000000000000e+00 0.0000000000000000e+00 0.0000000000000000e+00  0.0000000000000000e+00 0.0000000000000000e+00 0.0000000000000000e+00  1.0674947276371705e+00 7.2147650501334509e-03 0.0000000000000000e+00  1.4617724735188093e+00 1.0486769771805532e-01 0.0000000000000000e+00  1.2622616409975986e+00 8.2086663916989641e-02 0.0000000000000000e+00  9.5863504731140992e-01 3.6543444461557127e-02 0.0000000000000000e+00  0.0000000000000000e+00 0.0000000000000000e+00 0.0000000000000000e+00  0.0000000000000000e+00 0.0000000000000000e+00 0.0000000000000000e+00  0.0000000000000000e+00 0.0000000000000000e+00 0.0000000000000000e+00  0.0000000000000000e+00 0.0000000000000000e+00 0.0000000000000000e+00  0.0000000000000000e+00 0.0000000000000000e+00 0.0000000000000000e+00  0.0000000000000000e+00 0.0000000000000000e+00 0.0000000000000000e+00  0.0000000000000000e+00 0.0000000000000000e+00 0.0000000000000000e+00  0.0000000000000000e+00 0.0000000000000000e+00 0.0000000000000000e+00  0.0000000000000000e+00 0.0000000000000000e+00 0.0000000000000000e+00  0.0000000000000000e+00 0.0000000000000000e+00 0.0000000000000000e+00  0.0000000000000000e+00 0.0000000000000000e+00 0.0000000000000000e+00  0.0000000000000000e+00 0.0000000000000000e+00 0.0000000000000000e+00  0.0000000000000000e+00 0.0000000000000000e+00 0.0000000000000000e+00  0.0000000000000000e+00 0.0000000000000000e+00 0.0000000000000000e+00  0.0000000000000000e+00 0.0000000000000000e+00 0.0000000000000000e+00  0.0000000000000000e+00 0.0000000000000000e+00 0.0000000000000000e+00  0.0000000000000000e+00 0.0000000000000000e+00 0.0000000000000000e+00  0.0000000000000000e+00 0.0000000000000000e+00 0.0000000000000000e+00  0.0000000000000000e+00 0.0000000000000000e+00 0.0000000000000000e+00  0.0000000000000000e+00 0.0000000000000000e+00 0.0000000000000000e+00  0.0000000000000000e+00 0.0000000000000000e+00 0.0000000000000000e+00  9.6000004968110086e-01 0.0000000000000000e+00 0.0000000000000000e+00  1.4400000745229737e+00 0.0000000000000000e+00 0.0000000000000000e+00  1.4400000745255521e+00 0.0000000000000000e+00 0.0000000000000000e+00  9.6000004968474051e-01 0.0000000000000000e+00 0.0000000000000000e+00  -2.2957701199619731e-02 -1.7696997736712963e-01 0.0000000000000000e+00  6.1274146997899215e-01 -2.6594748447283184e-01 0.0000000000000000e+00  4.5392334294819081e-01 -4.9389352419854166e-01 0.0000000000000000e+00  1.8206043613876830e+00 -5.0092327620197163e-02 0.0000000000000000e+00  1.9153617528543130e+00 -7.7854253164940421e-02 0.0000000000000000e+00  1.4559606340838014e+00 1.6730912494572062e-01 0.0000000000000000e+00  1.3308352930120875e+00 3.4778411090291150e-01 0.0000000000000000e+00  1.3402970968517647e+00 2.7695581270721908e-01 0.0000000000000000e+00  1.3059165399235060e+00 -4.7155321120190510e-02 0.0000000000000000e+00  1.2553421980721717e+00 -3.0540107945699424e-01 0.0000000000000000e+00  1.3907359995767750e+00 -3.6526232948470905e-01 0.0000000000000000e+00  -3.0400269528014251e-01 -7.9902619568881422e-02 0.0000000000000000e+00  1.6298195437811152e+00 -2.2964183112480635e-01 0.0000000000000000e+00  3.4267665821712838e-03 -3.9549393351270903e-02 0.0000000000000000e+00  -5.1992981073250656e-02 1.4995415705256243e-01 0.0000000000000000e+00  1.4134422214491575e+00 -8.6117391304078927e-01 0.0000000000000000e+00  4.8258607983294882e-01 6.6783077705696844e-02 0.0000000000000000e+00  1.8643999541938996e+00 -2.2814967963946206e-01 0.0000000000000000e+00  1.4094462072779299e+00 1.4044914577085280e-01 0.0000000000000000e+00  1.4037217313235273e+00 2.9621972076268538e-01 0.0000000000000000e+00  1.4990693016316088e+00 2.4765962155017907e-01 0.0000000000000000e+00  1.9060293204725627e+00 1.4321337157156616e-01 0.0000000000000000e+00  1.4074070804639891e+00 -2.3870590785948745e-01 0.0000000000000000e+00  9.0503383431537565e-01 -4.2449066545303678e-02 0.0000000000000000e+00  2.0543398262715113e+00 3.8301661048724467e-01 0.0000000000000000e+00  1.9156876411370747e+00 6.2437000889675032e-01 0.0000000000000000e+00  1.5270344375605649e+00 7.8845240772366187e-01 0.0000000000000000e+00  1.1646298166444256e+00 5.8809626122015934e-01 0.0000000000000000e+00  9.4387842296157631e-01 1.3714595340398761e-01 0.0000000000000000e+00  9.7908742389515158e-01 -3.6841764903430463e-01 0.0000000000000000e+00  1.2779176606865230e+00 -6.7728060350968933e-01 0.0000000000000000e+00  1.6322565013518016e+00 -7.0540730067044188e-01 0.0000000000000000e+00  1.8904025438232313e+00 -5.2203799935098549e-01 0.0000000000000000e+00  1.6342572601454208e+00 1.8109472586054318e-01 0.0000000000000000e+00  1.6146260041789109e+00 1.0720894041559518e-02 0.0000000000000000e+00  1.3710842207072378e+00 -2.7852099829189297e-01 0.0000000000000000e+00  -1.6213412149624173e-01 3.6205130913114413e-02 0.0000000000000000e+00  1.5086518031478664e+00 4.5701236516149596e-01 0.0000000000000000e+00  1.7904699312153809e+00 4.0977535851486674e-03 0.0000000000000000e+00  1.4696388899070676e+00 -1.7388188109054131e-01 0.0000000000000000e+00  1.3491798885376827e+00 -1.5242957187555087e-01 0.0000000000000000e+00  1.1048490720175097e+00 3.2561735285586188e-02 0.0000000000000000e+00  -8.4485056437681214e-02 2.1882808020388095e-01 0.0000000000000000e+00  9.2628211904672386e-01 -2.1187401776550377e-01 0.0000000000000000e+00  1.3264809413944931e+00 -4.2644277729201263e-01 0.0000000000000000e+00  1.4782726200855512e+00 3.0187771193531526e-01 0.0000000000000000e+00  8.3350116500409410e-01 -5.5115069355030744e-01 0.0000000000000000e+00  1.1900399289771413e+00 1.1972836970084934e-01 0.0000000000000000e+00  1.1661728775489337e+00 -6.3825156832015881e-02 0.0000000000000000e+00  -8.4535319169883952e-02 -1.6556255612624002e-02 0.0000000000000000e+00  1.0705289762049879e+00 4.2449941136766484e-01 0.0000000000000000e+00  1.3587514568118579e+00 -2.4171356457290688e-01 0.0000000000000000e+00  1.0834284713907552e+00 1.7806858727589461e-01 0.0000000000000000e+00  1.1651558077749293e+00 5.7681613685810862e-01 0.0000000000000000e+00  1.7928317949872310e+00 8.6370776626339907e-01 0.0000000000000000e+00  1.2643192993651096e+00 9.7196909641443585e-01 0.0000000000000000e+00  7.7240941426636156e-01 5.4734891962276566e-01 0.0000000000000000e+00  6.4408319855856977e-01 -1.6180436432499365e-01 0.0000000000000000e+00  2.0997219233558702e+00 5.7366112372986211e-01 0.0000000000000000e+00  1.9066603047876953e+00 -2.9692196972853674e-01 0.0000000000000000e+00  1.6687272606567083e+00 1.7726140523052455e-01 0.0000000000000000e+00  9.5341706429387230e-01 -7.7086741828502348e-01 0.0000000000000000e+00  9.4245393950687451e-01 5.1175289003153002e-01 0.0000000000000000e+00  9.7553337159970666e-01 -4.2484894064567673e-02 0.0000000000000000e+00  1.4024349465048094e+00 -1.8741574856281101e-01 0.0000000000000000e+00  1.0906600346088220e+00 2.1393415168161636e-01 0.0000000000000000e+00  3.9939316794073215e-01 3.4091347389463816e-02 0.0000000000000000e+00  -5.6629073993247958e-02 2.2080366917038047e-01 0.0000000000000000e+00  -7.7910899059433880e-02 1.8149902896822642e-01 0.0000000000000000e+00  1.4535195871891562e+00 7.7261724880061208e-02 0.0000000000000000e+00  1.8369631262312009e+00 1.3212580898862963e-01 0.0000000000000000e+00  -2.2322770775691763e-02 -2.5663492455056846e-02 0.0000000000000000e+00  1.4937553555863814e+00 -1.0245285864501066e+00 0.0000000000000000e+00  1.4079111826656272e+00 -3.5159920986185811e-01 0.0000000000000000e+00  8.6483510521235496e-01 -6.4054926395649386e-02 0.0000000000000000e+00  6.9835843344681725e-01 -4.8529486438735184e-02 0.0000000000000000e+00  1.0318368527281669e+00 1.7417597519678701e-01 0.0000000000000000e+00  1.0653872568161684e+00 -1.0539228600925839e-01 0.0000000000000000e+00  1.4754269931857846e+00 -2.3590817070743145e-01 0.0000000000000000e+00  1.2804945511496917e+00 2.2522348257940181e-01 0.0000000000000000e+00  4.2967300531636626e-01 -3.1015494506479661e-02 0.0000000000000000e+00  1.6927089532202051e+00 -3.3861692373808411e-01 0.0000000000000000e+00  -5.0755490253956946e-02 -1.7165060497314762e-02 0.0000000000000000e+00  1.5552298062470655e+00 1.1412651679917059e+00 0.0000000000000000e+00  -4.4344132621760166e-02 9.4819264804050396e-02 0.0000000000000000e+00  1.9670327646157826e+00 7.7787805163451174e-01 0.0000000000000000e+00  8.6321296087410648e-01 9.5864770673074784e-01 0.0000000000000000e+00  4.3465611983375452e-01 2.3654851225792756e-01 0.0000000000000000e+00  9.1991455302747493e-01 -2.8716130145144281e-01 0.0000000000000000e+00  1.5019326996500166e+00 -2.8606279715862964e-02 0.0000000000000000e+00  1.1547412165869622e+00 -2.1362390673834813e-01 0.0000000000000000e+00  1.5383972138726274e+00 2.3730787640577611e-01 0.0000000000000000e+00  -3.0705268055209543e-02 1.2089480311452890e-01 0.0000000000000000e+00  5.8707502926740518e-01 -5.9642991119463562e-01 0.0000000000000000e+00  1.2737516483408144e+00 3.4935815518801392e-03 0.0000000000000000e+00  1.9206860568631792e+00 -7.9173721791552532e-01 0.0000000000000000e+00  1.0248919999003172e+00 -7.2908278313394234e-02 0.0000000000000000e+00  4.0239743443044834e-01 9.8066661794477591e-03 0.0000000000000000e+00  -4.0093603936801098e-01 -7.8841183010973137e-01 0.0000000000000000e+00  1.2040502699265916e+00 -4.7558578375503202e-01 0.0000000000000000e+00  1.1472822018402953e+00 -1.0634203404303242e+00 0.0000000000000000e+00  1.3172307060989081e+00 -1.1880719457043691e-01 0.0000000000000000e+00  8.7943970143245465e-01 -1.0190812394301155e-01 0.0000000000000000e+00  1.0293864403239625e+00 2.1107859662520576e-01 0.0000000000000000e+00  7.0253439676070495e-01 -5.8143018957884027e-02 0.0000000000000000e+00  2.7945700834920537e-03 -3.5889699141249641e-02 0.0000000000000000e+00  1.3354868700519047e+00 8.2564897224655341e-03 0.0000000000000000e+00  1.7731645326080647e+00 -5.0987526671247374e-01 0.0000000000000000e+00  1.3305831813026110e+00 -3.7985596581553732e-02 0.0000000000000000e+00  1.7496236284630968e+00 -9.8717263803349986e-01 0.0000000000000000e+00  1.0752660287254880e+00 3.3687651080373818e-02 0.0000000000000000e+00  1.6172537996489902e+00 -5.3482472628482800e-03 0.0000000000000000e+00  1.6890905973752575e+00 3.6661303910535065e-01 0.0000000000000000e+00  1.4165301472065033e+00 1.0483166166009160e-01 0.0000000000000000e+00  1.0327807053354461e+00 1.4682473755672470e-01 0.0000000000000000e+00  -2.0059622915731196e-01 1.0767609010666555e-01 0.0000000000000000e+00  8.8093467521920499e-01 -1.3844408292307703e-02 0.0000000000000000e+00  1.3806748554862209e+00 4.4709409677944478e-01 0.0000000000000000e+00  1.3047638458439739e+00 -6.9090713278366966e-02 0.0000000000000000e+00  1.2766142618508221e+00 1.9113431244350609e-01 0.0000000000000000e+00  1.6731660838444464e+00 3.4338075555816716e-01 0.0000000000000000e+00  1.3061198813945756e+00 1.2607023426727129e-01 0.0000000000000000e+00  1.1027362149281041e+00 1.8065021551856575e-01 0.0000000000000000e+00  5.6251783536111843e-01 1.3865318582964126e-01 0.0000000000000000e+00  1.8834203050754326e+00 -3.4581645723506493e-01 0.0000000000000000e+00  -6.8429114078651224e-02 2.2528122907914530e-01 0.0000000000000000e+00  1.5453817168027453e+00 -2.0237516902431701e-01 0.0000000000000000e+00  1.6015817047465022e+00 3.8066678640073137e-01 0.0000000000000000e+00  1.5891124538581276e+00 -3.3455073975102728e-01 0.0000000000000000e+00  1.5885357092327561e+00 8.6279145536659296e-01 0.0000000000000000e+00  7.8054657270622607e-01 2.3890295787336955e-03 0.0000000000000000e+00  1.5858208742852609e+00 4.5934142126694005e-01 0.0000000000000000e+00  1.6716409100715428e+00 -5.8016364053643921e-01 0.0000000000000000e+00  1.4858671494646720e+00 -1.0608595071087863e-01 0.0000000000000000e+00  8.1760107010113561e-02 1.7959642053461594e-01 0.0000000000000000e+00  1.2634052691021680e+00 -2.9397741698750401e-01 0.0000000000000000e+00  1.4230962361389730e+00 -4.6474169776282909e-01 0.0000000000000000e+00  1.3440216618643717e+00 -2.0254661829172704e-01 0.0000000000000000e+00  1.1323612890173271e+00 1.9985268249684038e-01 0.0000000000000000e+00  1.1220738999733610e+00 1.2738811436764902e-01 0.0000000000000000e+00  8.1324309816754159e-01 -8.4665675855664910e-02 0.0000000000000000e+00  1.3484952914315695e+00 -2.1026851677446984e-01 0.0000000000000000e+00  1.9013415823330677e+00 1.1894612205867534e-01 0.0000000000000000e+00  8.5261416630286890e-01 1.4077925505498728e-01 0.0000000000000000e+00  1.0476968311035906e+00 -2.2623419979025428e-01 0.0000000000000000e+00  9.3227528345129562e-01 -1.5021802631246528e-01 0.0000000000000000e+00  -4.6341666517119429e-01 -4.4081242319264352e-01 0.0000000000000000e+00  -1.9507685573841613e-01 -4.0359727538865978e-02 0.0000000000000000e+00  8.3328567877739101e-01 3.4323191144106063e-02 0.0000000000000000e+00  9.1868811757041002e-01 -2.4719836187002645e-02 0.0000000000000000e+00  1.5304241602904334e+00 9.6921026239807451e-01 0.0000000000000000e+00  1.4562123305416730e+00 -3.0186717262472497e-02 0.0000000000000000e+00  6.2949738580345305e-01 6.6114324817858605e-01 0.0000000000000000e+00  6.2997218408324374e-01 -2.1325856444525827e-02 0.0000000000000000e+00  1.2460679307857858e+00 6.1554530159734874e-02 0.0000000000000000e+00  7.4885505929388019e-01 -5.2543572000854646e-02 0.0000000000000000e+00  7.1333841620966773e-02 -1.5045472351258790e-01 0.0000000000000000e+00  6.5380900126847696e-01 2.9353710198994996e-02 0.0000000000000000e+00  6.7105086584469587e-01 -2.6221767341482166e-01 0.0000000000000000e+00  1.1250910997670827e+00 1.1687602556433272e+00 0.0000000000000000e+00  1.7272283070189451e+00 9.8252470648455736e-01 0.0000000000000000e+00  4.6338289799741161e-01 6.8838337445529385e-01 0.0000000000000000e+00  3.0249034738898362e-01 -2.1376997474634321e-01 0.0000000000000000e+00  8.5265673193755542e-01 -9.7507957409703472e-02 0.0000000000000000e+00  -8.8137471773435030e-03 5.4062478945991338e-02 0.0000000000000000e+00  1.5233149433218867e+00 3.7643535131771177e-01 0.0000000000000000e+00  -5.3108792733574599e-02 -3.1567372966545874e-02 0.0000000000000000e+00  -1.8226642941161341e-02 3.6758552089678154e-02 0.0000000000000000e+00  1.1089031007681436e+00 9.4286234217109507e-02 0.0000000000000000e+00  1.4181427919755474e+00 -4.1503721582981011e-02 0.0000000000000000e+00  7.3107066281298194e-01 -9.5985275149441707e-01 0.0000000000000000e+00  1.0694306032261505e+00 -7.3945197229683277e-02 0.0000000000000000e+00  6.1363966995037955e-01 5.5616370015349852e-02 0.0000000000000000e+00  6.2331144554345486e-01 -1.2648615128812876e-01 0.0000000000000000e+00  8.3048951356928202e-01 7.6939435097309883e-02 0.0000000000000000e+00  1.3669705171554829e+00 -4.5497137250595249e-01 0.0000000000000000e+00  1.1430513369644983e+00 3.6662787281628234e-01 0.0000000000000000e+00  5.6994512279270193e-01 1.4173812979641216e-02 0.0000000000000000e+00  5.7156003638027486e-01 4.4622041020124327e-02 0.0000000000000000e+00  -1.3939850020273287e-01 -6.9059204672196839e-02 0.0000000000000000e+00  7.0121423318757115e-01 -2.6228539627727303e-02 0.0000000000000000e+00  1.3271896448228573e+00 2.5646636027108116e-01 0.0000000000000000e+00  9.3794690629300481e-01 -5.3879552520404300e-02 0.0000000000000000e+00  1.9866582655765488e+00 3.0268377433586922e-02 0.0000000000000000e+00  1.4589491930467937e+00 8.0957647165485916e-04 0.0000000000000000e+00  1.6046167765601655e+00 5.8069021227376094e-01 0.0000000000000000e+00  7.4094689924313117e-01 5.0435264904849626e-02 0.0000000000000000e+00  1.5483600820711854e+00 3.4643534952028071e-01 0.0000000000000000e+00  1.5983105146535841e+00 3.1504088188157781e-01 0.0000000000000000e+00  1.6015309415234320e+00 3.5609102066560144e-01 0.0000000000000000e+00  1.4683309563791211e+00 2.4123094627792974e-01 0.0000000000000000e+00  1.2174338237802578e+00 1.9748682124074687e-01 0.0000000000000000e+00  1.4293352841271989e+00 1.7711468067201022e-01 0.0000000000000000e+00  1.4347660303613370e+00 -1.4546585103607806e-01 0.0000000000000000e+00  1.5215119677318201e+00 1.2906654591279793e-01 0.0000000000000000e+00  1.0440232925076678e+00 -4.6832938779848360e-01 0.0000000000000000e+00  1.3790400032773147e+00 -8.2604075510