<?xml version="1.0"?>
<VTKFile type="UnstructuredGrid"  version="0.1"  >
<UnstructuredGrid>
<Piece  NumberOfPoints="3852" NumberOfCells="7360">
<Points>
<DataArray  type="Float64"  NumberOfComponents="3"  format="ascii">0 0 0  0 0.41 0  2.2 0.41 0  2.2 0 0  0.2 0.15 0  0.15 0.2 0  0.2 0.25 0  0.25 0.2 0  0.2097545161007899 0.1509607359798352 0  0.219134171618224 0.153806023374423 0  0.2277785116509268 0.1584265193848371 0  0.2353553390592504 0.1646446609405956 0  0.2415734806150793 0.1722214883489481 0  0.2461939766255306 0.1808658283816641 0  0.249039264020151 0.1902454838991403 0  0.2490392640201666 0.2097545161007811 0  0.2461939766255869 0.2191341716182 0  0.2415734806151802 0.2277785116509009 0  0.2353553390594108 0.235355339059244 0  0.2277785116510524 0.2415734806150789 0  0.2191341716182962 0.2461939766255471 0  0.209754516100834 0.2490392640201561 0  0.1902454838992189 0.2490392640201666 0  0.1808658283818 0.2461939766255869 0  0.1722214883490991 0.2415734806151802 0  0.164644660940756 0.2353553390594108 0  0.1584265193849211 0.2277785116510524 0  0.1538060233744529 0.2191341716182962 0  0.150960735979844 0.209754516100834 0  0.1509607359798352 0.1902454838992101 0  0.153806023374423 0.180865828381776 0  0.1584265193848371 0.1722214883490732 0  0.1646446609405956 0.1646446609407496 0  0.1722214883489481 0.1584265193849207 0  0.1808658283816641 0.1538060233744694 0  0.1902454838991403 0.150960735979849 0  0.09999999999980318 0 0  0.1999999999996354 0 0  0.2999999999994593 0 0  0.3999999999991452 0 0  0.4999999999988309 0 0  0.599999999998495 0 0  0.6999999999982023 0 0  0.7999999999979096 0 0  0.8999999999975735 0 0  0.9999999999972848 0 0  1.099999999997053 0 0  1.199999999997309 0 0  1.299999999997566 0 0  1.399999999997821 0 0  1.49999999999809 0 0  1.599999999998377 0 0  1.69999999999859 0 0  1.799999999998877 0 0  1.899999999999145 0 0  1.999999999999386 0 0  2.099999999999693 0 0  2.2 0.08199999999981657 0  2.2 0.1639999999995688 0  2.2 0.2459999999995603 0  2.2 0.327999999999785 0  2.100000000000048 0.41 0  2.000000000000269 0.41 0  1.900000000000422 0.41 0  1.800000000000679 0.41 0  1.700000000000931 0.41 0  1.600000000001326 0.41 0  1.500000000001665 0.41 0  1.400000000002032 0.41 0  1.300000000002395 0.41 0  1.200000000002644 0.41 0  1.100000000002865 0.41 0  1.000000000002617 0.41 0  0.900000000002368 0.41 0  0.8000000000021192 0.41 0  0.7000000000018587 0.41 0  0.6000000000015786 0.41 0  0.5000000000013736 0.41 0  0.4000000000010933 0.41 0  0.3000000000008329 0.41 0  0.2000000000005997 0.41 0  0.1000000000003003 0.41 0  0 0.3280000000001975 0  0 0.2460000000004372 0  0 0.1640000000004437 0  0 0.08200000000021695 0  0.439039350479032 0.2235433210862024 0  0.3557293424662716 0.1539377961885917 0  0.3450132387946972 0.2399891502764809 0  0.2900756359792848 0.08507884665974728 0  0.2884413411145515 0.3059878288466324 0  0.2102195502178943 0.3385267178242456 0  0.137328909169326 0.3152847369018352 0  0.08490385663776813 0.2628976192695439 0  0.08063302347471875 0.188368977740952 0  0.1005937615311739 0.1162460982751979 0  0.1621860847198582 0.08598327887900903 0  0.3012864586130264 0.1926027915888804 0  1.999140000000448 0.2049999999995642 0  0.2742354912953259 0.1572259708446958 0  0.2871471664627305 0.2264358039321654 0  0.6542851578645765 0.1981889790488746 0  0.2651366296338276 0.2534562504463119 0  0.2371819217149928 0.0977949043027586 0  1.651678197071202 0.2145186615851206 0  1.349674714201118 0.2086119645070391 0  0.9627539291831038 0.2056711800839285 0  0.2360880502985623 0.2733043913425156 0  1.159884231859056 0.2050429640239795 0  0.2502927927237266 0.1358797630898622 0  0.2080582834123368 0.2835355213895352 0  0.1805439632603489 0.278338480667804 0  0.1486243506827335 0.2626014098227327 0  0.1266658889266303 0.2392753516137401 0  0.1179814841582247 0.2069380844236527 0  0.1225167704961566 0.1764957192948648 0  0.1357996569043286 0.1472158045151807 0  0.1619764829264572 0.126298308975886 0  0.1935640279204225 0.116654032325456 0  1.82457000000085 0.2346439024393236 0  0.8027657238591595 0.149277802568535 0  1.498563450727992 0.2632867809910664 0  0.2770405925201826 0.1924926016722167 0  0.470924801584011 0.09138612536042019 0  0.550693598792917 0.2898604497866635 0  0.381089831438127 0.3238078833671811 0  2.074516462495042 0.125705772324225 0  2.083599037046577 0.2769549245607841 0  0.2692296340100125 0.2210592970306522 0  0.7614733075682367 0.2839235561638241 0  1.536698221979284 0.1258192462655419 0  1.231809489345021 0.1282542717942667 0  1.054759157670174 0.1242749934189342 0  1.754535566851005 0.1223197024158991 0  1.90452621597739 0.1324728094649104 0  0.2672409321155211 0.178737994598723 0  1.254401531996246 0.2902808614622134 0  1.04350934597445 0.2986664252663559 0  0.0749710792305778 0.3208721925318313 0  0.5425289614095572 0.165152457827861 0  0.1663208394680799 0.2644065126118989 0  0.1471335176887868 0.2433864007787126 0  0.1345556779484054 0.219852318055334 0  0.131940483167677 0.1932967226753857 0  0.1941574795820069 0.2685534232066453 0  0.2226696214021025 0.1252682734732412 0  0.2193882214552426 0.2661718674478616 0  0.1396865053227576 0.1677617654469802 0  0.8749487631478475 0.295170577255529 0  1.424301820545763 0.1157348858866879 0  1.918515045506933 0.2902236143624367 0  1.744876807925144 0.306628844405037 0  0.2443979144126529 0.254353837216211 0  0.2569054246570621 0.2306780201523878 0  0.2632507216716993 0.2062296523407826 0  0.4609453431326088 0.3138128990490959 0  0.3578015395476809 0.08253318517696946 0  0.2529777826635333 0.155582948480283 0  0.1580369715200277 0.1487041474358234 0  0.652872088668587 0.3101079993636056 0  0.297147332491062 0.2558065812325378 0  0.6188247313471635 0.1101603945467571 0  0.8951149554961688 0.1123812542864208 0  1.592749166085722 0.2985190085719691 0  1.40420309431358 0.2992155383468256 0  1.649189110727275 0.1000387439201274 0  0.2301663900864273 0.1432830242131801 0  0.2064839406544439 0.1345771465164309 0  0.2548204572493643 0.1702022465417566 0  0.1606700828011604 0.2481621709908606 0  0.2605987457303776 0.1928909671966518 0  0.1826942838524941 0.2594610608897559 0  0.1456438338561037 0.2290651013631561 0  0.1387681034994896 0.2058679665896095 0  1.140902260384949 0.3081952438204152 0  2.123402621966431 0.2039515281261525 0  0.7272188829630218 0.1047469619375249 0  0.2060868819369127 0.2616331638469837 0  0.246763614216289 0.2411610007697902 0  0.1405961691450822 0.1819800466423126 0  1.149638048863541 0.08264492713269313 0  0.1809997740285721 0.1365020267363126 0  1.993198408221569 0.09755938404998035 0  0.2287111352430851 0.2547015941619741 0  0.3818716699056283 0.2060398770290832 0  0.39147508084147 0.2656155699545688 0  0.151201080877373 0.1608659990301362 0  0.0542521118046473 0.1382221876243976 0  0.06190301158313444 0.0685934933767465 0  1.317316039400266 0.1015983144534349 0  0.2176417279723976 0.1415790407114221 0  0.2401571300978209 0.1529210337009423 0  0.2618092962776011 0.3566662607419938 0  0.1941527094396574 0.1377969918002053 0  0.9590486261329707 0.3255353063371385 0  0.1708201090411339 0.1447474051814825 0  1.837592370686806 0.3302992722413595 0  0.3197015570210796 0.1212159119695666 0  0.4155281956943757 0.1409543952531078 0  0.0549491513262805 0.2307535706287103 0  0.1668210562270142 0.3605647861782867 0  0.2854688902460447 0.2093700809023571 0  2.013251581901814 0.3292746985146142 0  0.1192191106244758 0.2809901915857802 0  0.2487958366614321 0.04556523514103697 0  0.09061021186838321 0.2240174335271237 0  1.737143840576958 0.20912817770623 0  0.04515017012776967 0.2784708690411318 0  0.5347554646753627 0.08988970780599832 0  0.977104673723579 0.08241628541188413 0  0.336509991617897 0.2888965225844298 0  0.2569238041969055 0.2173711314485607 0  1.906541186051535 0.2125389476829634 0  0.1762338839607841 0.3102437166134606 0  1.449268841077636 0.201011295143529 0  0.8555371485878378 0.2099663446585434 0  1.837208236203613 0.07556229833764837 0  1.264402545318887 0.1992523923163096 0  1.068181074047183 0.2155119107017876 0  0.3158931250274742 0.3421721218291775 0  0.2731958384900449 0.2373435058667565 0  0.09875906484220501 0.1533097574901186 0  0.7355755433976705 0.2066339904079041 0  1.567440499207928 0.2049999999995983 0  1.329829828222916 0.3295825481537897 0  0.8214190147401245 0.07894167681990104 0  1.525459989258997 0.3394220200696043 0  0.1990897327079506 0.06300531675246424 0  0.244701762210989 0.3062404318132603 0  0.1033853772622983 0.3551443431224104 0  0.1178236825374896 0.07148041782551597 0  0.1558198999929474 0.04409380269139784 0  0.3389178979413869 0.198678920661321 0  0.310790717645908 0.2196004930752872 0  2.125022007676643 0.3402049371791425 0  2.130028889485561 0.06535501282233655 0  0.4821161335597635 0.1626909543876269 0  0.2838678108956019 0.1254276466262967 0  0.5062815929260498 0.2376271077316994 0  1.663059277092996 0.3422301118688678 0  1.82292665764828 0.1574809263836269 0  2.052538557905295 0.05717536030732174 0  0.3078251537889645 0.16056368457456 0  0.8108267070172145 0.3390047366820738 0  1.487254632568403 0.0703866281621833 0  0.155004430757041 0.2369517702015699 0  0.1725545045705267 0.2519594403466565 0  0.1445581653510352 0.2167994984574706 0  0.1420710285613199 0.1942747855116325 0  1.461861739291679 0.3471998553985149 0  0.2372128969196007 0.2453440460936858 0  0.1943665918892754 0.2580518465884657 0  0.2452139232912363 0.1629124725160763 0  0.2555786751481889 0.1825885041235872 0  2.14640473333793 0.2790222779730848 0  2.145589594789407 0.1282024626544199 0  0.1486651579751984 0.1726583296292201 0  0.550000000001476 0.3603327897285098 0  0.0505668771231032 0.3660023622363767 0  1.049999999997169 0.05217028468202135 0  1.244771793631775 0.05744029386223062 0  0.1356759337238615 0.1094447816941579 0  0.5872326411628903 0.2223148728195226 0  0.2168458206248643 0.2558159203714847 0  1.749999999998732 0.05166028789524129 0  0.2855257256666041 0.1763246086558152 0  1.92
[...]
<PointData  Vectors="f_22"> 
<DataArray  type="Float64"  Name="f_22"  NumberOfComponents="3" format="ascii">0.0000000000000000e+00 0.0000000000000000e+00 0.0000000000000000e+00  0.0000000000000000e+00 0.0000000000000000e+00 0.0000000000000000e+00  0.0000000000000000e+00 0.0000000000000000e+00 0.0000000000000000e+00  0.0000000000000000e+00 0.0000000000000000e+00 0.0000000000000000e+00  0.0000000000000000e+00 0.0000000000000000e+00 0.0000000000000000e+00  0.0000000000000000e+00 0.0000000000000000e+00 0.0000000000000000e+00  0.0000000000000000e+00 0.0000000000000000e+00 0.0000000000000000e+00  0.0000000000000000e+00 0.0000000000000000e+00 0.0000000000000000e+00  0.0000000000000000e+00 0.0000000000000000e+00 0.0000000000000000e+00  0.0000000000000000e+00 0.0000000000000000e+00 0.0000000000000000e+00  0.0000000000000000e+00 0.0000000000000000e+00 0.0000000000000000e+00  0.0000000000000000e+00 0.0000000000000000e+00 0.0000000000000000e+00  0.0000000000000000e+00 0.0000000000000000e+00 0.0000000000000000e+00  0.0000000000000000e+00 0.0000000000000000e+00 0.0000000000000000e+00  0.0000000000000000e+00 0.0000000000000000e+00 0.0000000000000000e+00  0.0000000000000000e+00 0.0000000000000000e+00 0.0000000000000000e+00  0.0000000000000000e+00 0.0000000000000000e+00 0.0000000000000000e+00  0.0000000000000000e+00 0.0000000000000000e+00 0.0000000000000000e+00  0.0000000000000000e+00 0.0000000000000000e+00 0.0000000000000000e+00  0.0000000000000000e+00 0.0000000000000000e+00 0.0000000000000000e+00  0.0000000000000000e+00 0.0000000000000000e+00 0.0000000000000000e+00  0.0000000000000000e+00 0.0000000000000000e+00 0.0000000000000000e+00  0.0000000000000000e+00 0.0000000000000000e+00 0.0000000000000000e+00  0.0000000000000000e+00 0.0000000000000000e+00 0.0000000000000000e+00  0.0000000000000000e+00 0.0000000000000000e+00 0.0000000000000000e+00  0.0000000000000000e+00 0.0000000000000000e+00 0.0000000000000000e+00  0.0000000000000000e+00 0.0000000000000000e+00 0.0000000000000000e+00  0.0000000000000000e+00 0.0000000000000000e+00 0.0000000000000000e+00  0.0000000000000000e+00 0.0000000000000000e+00 0.0000000000000000e+00  0.0000000000000000e+00 0.0000000000000000e+00 0.0000000000000000e+00  0.0000000000000000e+00 0.0000000000000000e+00 0.0000000000000000e+00  0.0000000000000000e+00 0.0000000000000000e+00 0.0000000000000000e+00  0.0000000000000000e+00 0.0000000000000000e+00 0.0000000000000000e+00  0.0000000000000000e+00 0.0000000000000000e+00 0.0000000000000000e+00  0.0000000000000000e+00 0.0000000000000000e+00 0.0000000000000000e+00  0.0000000000000000e+00 0.0000000000000000e+00 0.0000000000000000e+00  0.0000000000000000e+00 0.0000000000000000e+00 0.0000000000000000e+00  0.0000000000000000e+00 0.0000000000000000e+00 0.0000000000000000e+00  0.0000000000000000e+00 0.0000000000000000e+00 0.0000000000000000e+00  0.0000000000000000e+00 0.0000000000000000e+00 0.0000000000000000e+00  0.0000000000000000e+00 0.0000000000000000e+00 0.0000000000000000e+00  0.0000000000000000e+00 0.0000000000000000e+00 0.0000000000000000e+00  0.0000000000000000e+00 0.0000000000000000e+00 0.0000000000000000e+00  0.0000000000000000e+00 0.0000000000000000e+00 0.0000000000000000e+00  0.0000000000000000e+00 0.0000000000000000e+00 0.0000000000000000e+00  0.0000000000000000e+00 0.0000000000000000e+00 0.0000000000000000e+00  0.0000000000000000e+00 0.0000000000000000e+00 0.0000000000000000e+00  0.0000000000000000e+00 0.0000000000000000e+00 0.0000000000000000e+00  0.0000000000000000e+00 0.0000000000000000e+00 0.0000000000000000e+00  0.0000000000000000e+00 0.0000000000000000e+00 0.0000000000000000e+00  0.0000000000000000e+00 0.0000000000000000e+00 0.0000000000000000e+00  0.0000000000000000e+00 0.0000000000000000e+00 0.0000000000000000e+00  0.0000000000000000e+00 0.0000000000000000e+00 0.0000000000000000e+00  0.0000000000000000e+00 0.0000000000000000e+00 0.0000000000000000e+00  0.0000000000000000e+00 0.0000000000000000e+00 0.0000000000000000e+00  0.0000000000000000e+00 0.0000000000000000e+00 0.0000000000000000e+00  0.0000000000000000e+00 0.0000000000000000e+00 0.0000000000000000e+00  1.0740468258476865e+00 -1.0716885282758024e-02 0.0000000000000000e+00  1.2332524726513032e+00 -7.2058522208953285e-02 0.0000000000000000e+00  1.3352183803062732e+00 -3.2036172239038263e-02 0.0000000000000000e+00  1.0950931263799377e+00 -3.6401949360022560e-03 0.0000000000000000e+00  0.0000000000000000e+00 0.0000000000000000e+00 0.0000000000000000e+00  0.0000000000000000e+00 0.0000000000000000e+00 0.0000000000000000e+00  0.0000000000000000e+00 0.0000000000000000e+00 0.0000000000000000e+00  0.0000000000000000e+00 0.0000000000000000e+00 0.0000000000000000e+00  0.0000000000000000e+00 0.0000000000000000e+00 0.0000000000000000e+00  0.0000000000000000e+00 0.0000000000000000e+00 0.0000000000000000e+00  0.0000000000000000e+00 0.0000000000000000e+00 0.0000000000000000e+00  0.0000000000000000e+00 0.0000000000000000e+00 0.0000000000000000e+00  0.0000000000000000e+00 0.0000000000000000e+00 0.0000000000000000e+00  0.0000000000000000e+00 0.0000000000000000e+00 0.0000000000000000e+00  0.0000000000000000e+00 0.0000000000000000e+00 0.0000000000000000e+00  0.0000000000000000e+00 0.0000000000000000e+00 0.0000000000000000e+00  0.0000000000000000e+00 0.0000000000000000e+00 0.0000000000000000e+00  0.0000000000000000e+00 0.0000000000000000e+00 0.0000000000000000e+00  0.0000000000000000e+00 0.0000000000000000e+00 0.0000000000000000e+00  0.0000000000000000e+00 0.0000000000000000e+00 0.0000000000000000e+00  0.0000000000000000e+00 0.0000000000000000e+00 0.0000000000000000e+00  0.0000000000000000e+00 0.0000000000000000e+00 0.0000000000000000e+00  0.0000000000000000e+00 0.0000000000000000e+00 0.0000000000000000e+00  0.0000000000000000e+00 0.0000000000000000e+00 0.0000000000000000e+00  0.0000000000000000e+00 0.0000000000000000e+00 0.0000000000000000e+00  9.6000005250182896e-01 0.0000000000000000e+00 0.0000000000000000e+00  1.4400000787540661e+00 0.0000000000000000e+00 0.0000000000000000e+00  1.4400000787566443e+00 0.0000000000000000e+00 0.0000000000000000e+00  9.6000005250546838e-01 0.0000000000000000e+00 0.0000000000000000e+00  6.4249408914329037e-02 -8.3832841880697784e-01 0.0000000000000000e+00  2.0483378336331332e-01 -1.1803376660749075e-01 0.0000000000000000e+00  5.5705312964096088e-01 -1.2736228547994707e-01 0.0000000000000000e+00  1.7895973593936088e+00 -5.1168970195781642e-02 0.0000000000000000e+00  1.9695412311923199e+00 -1.2508419957730289e-02 0.0000000000000000e+00  1.4704961587596945e+00 1.9040152796371920e-01 0.0000000000000000e+00  1.3305940292242318e+00 3.5775110135446431e-01 0.0000000000000000e+00  1.3393288471471096e+00 2.7800485344960812e-01 0.0000000000000000e+00  1.3055201476032090e+00 -4.7335372534236572e-02 0.0000000000000000e+00  1.2555376283057500e+00 -3.0443614664985846e-01 0.0000000000000000e+00  1.3896934494154074e+00 -3.5955505143066013e-01 0.0000000000000000e+00  -2.6576641373698912e-01 1.5951950623906733e-01 0.0000000000000000e+00  1.3638557116289605e+00 8.8909661489915082e-02 0.0000000000000000e+00  -1.5725303416686768e-02 3.8907969439869183e-02 0.0000000000000000e+00  -8.0421490108812353e-03 2.5926009457379251e-01 0.0000000000000000e+00  1.0175209499648894e+00 3.5287192728150985e-01 0.0000000000000000e+00  3.7436062870389808e-01 9.8604636416864039e-02 0.0000000000000000e+00  1.8538856053226747e+00 -2.1716166291387581e-01 0.0000000000000000e+00  1.7663991665314565e+00 -1.8707355437752113e-01 0.0000000000000000e+00  1.7261804697888732e+00 1.5471989885127119e-01 0.0000000000000000e+00  1.5311444673309342e+00 7.7207738162403150e-01 0.0000000000000000e+00  1.8437510750203927e+00 1.8231340929836304e-01 0.0000000000000000e+00  1.7024510492297260e+00 -7.5692895437071750e-01 0.0000000000000000e+00  9.3739232763171099e-01 -2.8978990464105136e-02 0.0000000000000000e+00  2.0455223596662186e+00 4.1678557323515630e-01 0.0000000000000000e+00  1.9073680058450515e+00 6.4407581977088235e-01 0.0000000000000000e+00  1.5235305036943849e+00 7.9792728298529603e-01 0.0000000000000000e+00  1.1637643970402374e+00 5.9466967017246664e-01 0.0000000000000000e+00  9.4332155567979648e-01 1.4309912804617317e-01 0.0000000000000000e+00  9.7760592264742607e-01 -3.6214026262624016e-01 0.0000000000000000e+00  1.2758451073877390e+00 -6.7093713199870486e-01 0.0000000000000000e+00  1.6301101854139082e+00 -6.9784002934358569e-01 0.0000000000000000e+00  1.8873217022942017e+00 -5.1177208500360460e-01 0.0000000000000000e+00  1.3334882372763299e+00 4.2109353650333102e-02 0.0000000000000000e+00  1.3889400840550776e+00 -3.2918796591830546e-01 0.0000000000000000e+00  1.6211151684581280e+00 -2.5679092284278233e-02 0.0000000000000000e+00  -1.4384101097360719e-01 1.5877162328981775e-01 0.0000000000000000e+00  1.7929719372446562e+00 4.1219100498303629e-01 0.0000000000000000e+00  1.1241073947617510e+00 2.7485218653245691e-01 0.0000000000000000e+00  1.5807534578648070e+00 -2.5720634961486855e-01 0.0000000000000000e+00  1.2016102666665274e+00 1.5732918460387390e-02 0.0000000000000000e+00  1.3520010253907542e+00 1.7463059383445955e-02 0.0000000000000000e+00  -5.9391907275380955e-02 2.7305733846705399e-01 0.0000000000000000e+00  1.2803212794024690e+00 -2.4286437649162401e-01 0.0000000000000000e+00  1.2106740763459627e+00 2.9946600029237606e-02 0.0000000000000000e+00  1.4677429138214124e+00 -1.0355069650719123e-01 0.0000000000000000e+00  8.0495338919746562e-01 2.8326877758708657e-01 0.0000000000000000e+00  1.3875579976831343e+00 -8.3656925849080757e-02 0.0000000000000000e+00  1.4078150702144601e+00 3.0966856155770710e-02 0.0000000000000000e+00  -9.4579128822408876e-02 7.0671862709862351e-02 0.0000000000000000e+00  1.0811247645370738e+00 -1.4541646227303168e-01 0.0000000000000000e+00  1.4683071838189232e+00 -5.4781655216817861e-02 0.0000000000000000e+00  1.0827657422638235e+00 1.7871470842292067e-01 0.0000000000000000e+00  1.5031198721923116e+00 8.9641678281410964e-01 0.0000000000000000e+00  1.7853918857996260e+00 8.7544673305203413e-01 0.0000000000000000e+00  1.2628238081652836e+00 9.7927571713086936e-01 0.0000000000000000e+00  7.7268190300831086e-01 5.5536585077838219e-01 0.0000000000000000e+00  6.4300384471256933e-01 -1.5311945593508100e-01 0.0000000000000000e+00  2.0759531144241188e+00 5.9368151911126021e-01 0.0000000000000000e+00  1.9099233399138915e+00 -2.8442910033357133e-01 0.0000000000000000e+00  1.5926437120542098e+00 2.0004589060322980e-01 0.0000000000000000e+00  9.5054927878338524e-01 -7.6260356480387925e-01 0.0000000000000000e+00  6.4313933848445692e-01 -2.9036465611248691e-02 0.0000000000000000e+00  1.1024429431731768e+00 6.9372625920055941e-02 0.0000000000000000e+00  1.1355080163741409e+00 6.2877933557297830e-02 0.0000000000000000e+00  1.0530573827485787e+00 6.4742827479365606e-02 0.0000000000000000e+00  3.1855005504711548e-01 4.8502410089654398e-02 0.0000000000000000e+00  -5.6515411788771841e-02 2.2052685269480168e-01 0.0000000000000000e+00  -6.0282617847440947e-02 2.3473511636509894e-01 0.0000000000000000e+00  1.3332199026141835e+00 -8.6344481649420074e-02 0.0000000000000000e+00  1.7961130761233668e+00 4.2023182236744734e-02 0.0000000000000000e+00  -8.2144343893449296e-04 -1.7981779824087447e-02 0.0000000000000000e+00  1.4905846448087878e+00 -1.0170625347003965e+00 0.0000000000000000e+00  1.8051964947533230e+00 -3.7234770135274087e-01 0.0000000000000000e+00  7.1819205776762973e-01 7.4862654220520006e-02 0.0000000000000000e+00  1.0233010855964713e+00 4.0924274066619325e-02 0.0000000000000000e+00  1.5865842441765310e+00 3.7757251227046690e-01 0.0000000000000000e+00  1.2299698040107669e+00 -9.5233251514467571e-02 0.0000000000000000e+00  9.5939043243371835e-01 2.5548738526899573e-01 0.0000000000000000e+00  9.6982395653704923e-01 -8.3751131320810995e-02 0.0000000000000000e+00  4.5759587627624942e-01 -2.2248055714117882e-02 0.0000000000000000e+00  1.7066249924135799e+00 -3.3125051834342933e-01 0.0000000000000000e+00  -5.6229175710345955e-02 2.7780751257539204e-03 0.0000000000000000e+00  1.5498136382573922e+00 1.1465242661930295e+00 0.0000000000000000e+00  -3.7295868787783105e-02 1.4904306096615988e-01 0.0000000000000000e+00  1.9415709164824457e+00 7.8395497643591672e-01 0.0000000000000000e+00  8.6373615811591919e-01 9.6594781554996711e-01 0.0000000000000000e+00  4.3477192701626721e-01 2.4605646813202448e-01 0.0000000000000000e+00  1.1478812302372672e+00 -1.1863794803699206e-01 0.0000000000000000e+00  1.2906555458420139e+00 -7.3377162953200395e-03 0.0000000000000000e+00  7.4388662540761930e-01 -2.8105719617881303e-01 0.0000000000000000e+00  1.4700475382745555e+00 2.4728039706655822e-01 0.0000000000000000e+00  -5.0650891396561461e-02 1.1254642978242935e-01 0.0000000000000000e+00  5.8470599638977294e-01 -5.8682410549545960e-01 0.0000000000000000e+00  7.8716130135795959e-01 -2.1399144083502372e-01 0.0000000000000000e+00  1.9206210334887273e+00 -7.8420577085607202e-01 0.0000000000000000e+00  1.1396034279422382e+00 -1.0801490620229916e-02 0.0000000000000000e+00  3.3753267312492785e-01 2.4974801276548622e-02 0.0000000000000000e+00  -3.1408506789092822e-01 -5.3173486404974413e-01 0.0000000000000000e+00  1.5684738114776986e+00 -6.4125367277584622e-01 0.0000000000000000e+00  1.1436214793468789e+00 -1.0553698217046277e+00 0.0000000000000000e+00  1.3173957036759141e+00 -1.2148555694133388e-01 0.0000000000000000e+00  8.8037063818437677e-01 -1.0359586315658853e-01 0.0000000000000000e+00  1.2326456546355411e+00 1.3578755802472850e-01 0.0000000000000000e+00  7.2955064769014200e-01 -5.1774567581370702e-02 0.0000000000000000e+00  2.2805673928906110e-02 -3.5389366466771571e-02 0.0000000000000000e+00  1.3775457187925311e+00 2.9298795876419797e-02 0.0000000000000000e+00  1.7832357050251035e+00 -5.0486700795397055e-01 0.0000000000000000e+00  9.8299748289945033e-01 1.9858384585557048e-01 0.0000000000000000e+00  1.7485959221510903e+00 -9.8109443885472025e-01 0.0000000000000000e+00  9.5079346373426721e-01 4.0438855232914725e-02 0.0000000000000000e+00  1.5066201430141455e+00 3.9886420188605519e-02 0.0000000000000000e+00  1.1297027860924944e+00 -1.0466441430582159e-01 0.0000000000000000e+00  1.4161286841314609e+00 1.0270300348106547e-01 0.0000000000000000e+00  1.0403509642429092e+00 1.5682997565436663e-01 0.0000000000000000e+00  -1.4429034326464785e-01 2.4024113381391787e-01 0.0000000000000000e+00  1.0697085547722662e+00 3.3267102238957083e-02 0.0000000000000000e+00  1.3790396741341164e+00 4.5352310422021541e-01 0.0000000000000000e+00  1.2953762148862513e+00 -6.9064852789149644e-02 0.0000000000000000e+00  1.2759482065983714e+00 1.9255642814629448e-01 0.0000000000000000e+00  1.5560969194072309e+00 -8.8302024730320061e-02 0.0000000000000000e+00  1.3056938570882537e+00 1.2421534715048911e-01 0.0000000000000000e+00  1.3964601985857668e+00 3.8581749830385970e-01 0.0000000000000000e+00  8.9972442861458779e-01 3.6865671100874728e-02 0.0000000000000000e+00  2.0363374672262426e+00 -2.7613422251127095e-01 0.0000000000000000e+00  -5.6540627377661495e-02 2.2810248940703534e-01 0.0000000000000000e+00  1.3798985848608258e+00 2.7383778473059860e-02 0.0000000000000000e+00  1.6023873642657063e+00 4.0017269679155287e-01 0.0000000000000000e+00  1.5950057711726562e+00 3.2665882343397723e-01 0.0000000000000000e+00  1.4473091370921782e+00 -3.6690045086055140e-01 0.0000000000000000e+00  9.7015218007326931e-01 -1.9901728785080442e-02 0.0000000000000000e+00  1.3927341284926866e+00 -4.5621749415559231e-03 0.0000000000000000e+00  1.6594346869884300e+00 6.1414253330928176e-02 0.0000000000000000e+00  1.5653186421657546e+00 -9.2514412015871655e-02 0.0000000000000000e+00  6.7848096843594163e-02 2.2682302052969869e-01 0.0000000000000000e+00  1.2629120967086356e+00 -2.9241776094425792e-01 0.0000000000000000e+00  1.5274674592516921e+00 -8.9795435681145797e-01 0.0000000000000000e+00  1.5495629505646349e+00 -1.1459572441984504e-01 0.0000000000000000e+00  7.7580110723925377e-01 -4.5603570842163162e-02 0.0000000000000000e+00  1.3710392147424539e+00 1.0834901921436503e-01 0.0000000000000000e+00  8.8607754767881963e-01 -3.3475719646761340e-02 0.0000000000000000e+00  1.3446085509163401e+00 -2.0512194503419973e-01 0.0000000000000000e+00  1.9174942572401217e+00 1.6618408786345915e-01 0.0000000000000000e+00  8.5263097843867686e-01 1.4410520403931845e-01 0.0000000000000000e+00  1.0488220372641384e+00 -2.2434352831321758e-01 0.0000000000000000e+00  9.3206342779258322e-01 -1.4751653247441807e-01 0.0000000000000000e+00  -3.9859877113270731e-01 1.4098282416540129e-02 0.0000000000000000e+00  -8.9537418277317080e-02 2.2252946547155503e-01 0.0000000000000000e+00  1.0001301330476073e+00 -1.7203341177666554e-03 0.0000000000000000e+00  9.2797568370159922e-01 -7.7038194941226618e-03 0.0000000000000000e+00  1.3886964972107896e+00 4.1891102444610967e-01 0.0000000000000000e+00  1.4527949614432918e+00 1.1410769807608535e-02 0.0000000000000000e+00  2.8857815459400787e-01 6.6830126681206692e-02 0.0000000000000000e+00  7.6573083875576120e-01 -7.7712004451947793e-03 0.0000000000000000e+00  1.4539562726863424e+00 6.1952703721429945e-03 0.0000000000000000e+00  8.4029547078381228e-01 -4.4685810704075644e-03 0.0000000000000000e+00  -5.9158544386336262e-02 7.2767689551029274e-02 0.0000000000000000e+00  7.9033434693763172e-01 7.2259113771877534e-02 0.0000000000000000e+00  7.6873999374141266e-01 3.5074242798942522e-02 0.0000000000000000e+00  1.1231647993410809e+00 1.1722954619346588e+00 0.0000000000000000e+00  1.7101342016658769e+00 9.8241468946016641e-01 0.0000000000000000e+00  4.6444111665647198e-01 6.9633578889922931e-01 0.0000000000000000e+00  3.0144439759587893e-01 -2.0400633250688316e-01 0.0000000000000000e+00  8.0567061470045409e-01 4.0852764450708581e-02 0.0000000000000000e+00  -3.1061627422305900e-02 5.7320205300924430e-02 0.0000000000000000e+00  1.4710135163137605e+00 3.7678297309399877e-01 0.0000000000000000e+00  -5.0847370780461046e-02 -3.8666742575922793e-02 0.0000000000000000e+00  -1.9797796252003414e-02 6.3300522538420903e-02 0.0000000000000000e+00  1.3389669614873663e+00 -3.2551870628305266e-02 0.0000000000000000e+00  1.1728802929635471e+00 -3.0434947992852013e-02 0.0000000000000000e+00  7.2777881877774353e-01 -9.5149342897558797e-01 0.0000000000000000e+00  1.1029518757290884e+00 2.5777485763185132e-02 0.0000000000000000e+00  6.1304100366322301e-01 5.5062686959995742e-02 0.0000000000000000e+00  6.1530283872725633e-01 5.9950507709721997e-02 0.0000000000000000e+00  8.5225997368464756e-01 6.2195269168394390e-03 0.0000000000000000e+00  1.3664028926154337e+00 -4.5041014573242899e-01 0.0000000000000000e+00  1.0447362150284649e+00 7.2761992587528068e-01 0.0000000000000000e+00  5.0605172740931026e-01 2.4729273988350290e-02 0.0000000000000000e+00  6.8501474146432262e-01 -3.5334538154572652e-02 0.0000000000000000e+00  -1.6696415620400429e-01 8.9879592638230865e-02 0.0000000000000000e+00  8.9632670534006365e-01 -1.2505319743189967e-02 0.0000000000000000e+00  1.4858618289550420e+00 1.8181751782765254e-01 0.0000000000000000e+00  5.9683512025445717e-01 5.2892699922756723e-03 0.0000000000000000e+00  1.9357120510056800e+00 9.5108954377840407e-02 0.0000000000000000e+00  1.4588641336097865e+00 -2.0325786515184904e-03 0.0000000000000000e+00  1.6013908577254765e+00 5.9397196648199435e-01 0.0000000000000000e+00  8.4902307996395532e-01 -7.4210750639114420e-02 0.0000000000000000e+00  1.4880850786603275e+00 -3.1381247987076949e-01 0.0000000000000000e+00  1.7257754462670796e+00 -2.7156706548137582e-01 0.0000000000000000e+00  1.4700385518006420e+00 -1.2944747963174638e-01 0.0000000000000000e+00  1.5763962934503539e+00 -1.4814188175739301e-01 0.0000000000000000e+00  1.1613446451013361e+00 -1.9350340859868451e-01 0.0000000000000000e+00  1.1568007187111677e+00 -3.1206953832555878e-01 0.0000000000000000e+00  1.1075333889811367e+00 -6.9466722374893164e-01 0.0000000000000000e+00  1.4572790608318591e+00 -6.6426518970336645e-01 0.0000000000000000e+00  5.9328616534118972e-01 -4.5277968022161115e-02 0.0000000000000000e+00  1.3238439205485224e+00 -1.430470890