<?xml version="1.0"?>
<VTKFile type="UnstructuredGrid"  version="0.1"  >
<UnstructuredGrid>
<Piece  NumberOfPoints="3852" NumberOfCells="7360">
<Points>
<DataArray  type="Float64"  NumberOfComponents="3"  format="ascii">0 0 0  0 0.41 0  2.2 0.41 0  2.2 0 0  0.2 0.15 0  0.15 0.2 0  0.2 0.25 0  0.25 0.2 0  0.2097545161007899 0.1509607359798352 0  0.219134171618224 0.153806023374423 0  0.2277785116509268 0.1584265193848371 0  0.2353553390592504 0.1646446609405956 0  0.2415734806150793 0.1722214883489481 0  0.2461939766255306 0.1808658283816641 0  0.249039264020151 0.1902454838991403 0  0.2490392640201666 0.2097545161007811 0  0.2461939766255869 0.2191341716182 0  0.2415734806151802 0.2277785116509009 0  0.2353553390594108 0.235355339059244 0  0.2277785116510524 0.2415734806150789 0  0.2191341716182962 0.2461939766255471 0  0.209754516100834 0.2490392640201561 0  0.1902454838992189 0.2490392640201666 0  0.1808658283818 0.2461939766255869 0  0.1722214883490991 0.2415734806151802 0  0.164644660940756 0.2353553390594108 0  0.1584265193849211 0.2277785116510524 0  0.1538060233744529 0.2191341716182962 0  0.150960735979844 0.209754516100834 0  0.1509607359798352 0.1902454838992101 0  0.153806023374423 0.180865828381776 0  0.1584265193848371 0.1722214883490732 0  0.1646446609405956 0.1646446609407496 0  0.1722214883489481 0.1584265193849207 0  0.1808658283816641 0.1538060233744694 0  0.1902454838991403 0.150960735979849 0  0.09999999999980318 0 0  0.1999999999996354 0 0  0.2999999999994593 0 0  0.3999999999991452 0 0  0.4999999999988309 0 0  0.599999999998495 0 0  0.6999999999982023 0 0  0.7999999999979096 0 0  0.8999999999975735 0 0  0.9999999999972848 0 0  1.099999999997053 0 0  1.199999999997309 0 0  1.299999999997566 0 0  1.399999999997821 0 0  1.49999999999809 0 0  1.599999999998377 0 0  1.69999999999859 0 0  1.799999999998877 0 0  1.899999999999145 0 0  1.999999999999386 0 0  2.099999999999693 0 0  2.2 0.08199999999981657 0  2.2 0.1639999999995688 0  2.2 0.2459999999995603 0  2.2 0.327999999999785 0  2.100000000000048 0.41 0  2.000000000000269 0.41 0  1.900000000000422 0.41 0  1.800000000000679 0.41 0  1.700000000000931 0.41 0  1.600000000001326 0.41 0  1.500000000001665 0.41 0  1.400000000002032 0.41 0  1.300000000002395 0.41 0  1.200000000002644 0.41 0  1.100000000002865 0.41 0  1.000000000002617 0.41 0  0.900000000002368 0.41 0  0.8000000000021192 0.41 0  0.7000000000018587 0.41 0  0.6000000000015786 0.41 0  0.5000000000013736 0.41 0  0.4000000000010933 0.41 0  0.3000000000008329 0.41 0  0.2000000000005997 0.41 0  0.1000000000003003 0.41 0  0 0.3280000000001975 0  0 0.2460000000004372 0  0 0.1640000000004437 0  0 0.08200000000021695 0  0.439039350479032 0.2235433210862024 0  0.3557293424662716 0.1539377961885917 0  0.3450132387946972 0.2399891502764809 0  0.2900756359792848 0.08507884665974728 0  0.2884413411145515 0.3059878288466324 0  0.2102195502178943 0.3385267178242456 0  0.137328909169326 0.3152847369018352 0  0.08490385663776813 0.2628976192695439 0  0.08063302347471875 0.188368977740952 0  0.1005937615311739 0.1162460982751979 0  0.1621860847198582 0.08598327887900903 0  0.3012864586130264 0.1926027915888804 0  1.999140000000448 0.2049999999995642 0  0.2742354912953259 0.1572259708446958 0  0.2871471664627305 0.2264358039321654 0  0.6542851578645765 0.1981889790488746 0  0.2651366296338276 0.2534562504463119 0  0.2371819217149928 0.0977949043027586 0  1.651678197071202 0.2145186615851206 0  1.349674714201118 0.2086119645070391 0  0.9627539291831038 0.2056711800839285 0  0.2360880502985623 0.2733043913425156 0  1.159884231859056 0.2050429640239795 0  0.2502927927237266 0.1358797630898622 0  0.2080582834123368 0.2835355213895352 0  0.1805439632603489 0.278338480667804 0  0.1486243506827335 0.2626014098227327 0  0.1266658889266303 0.2392753516137401 0  0.1179814841582247 0.2069380844236527 0  0.1225167704961566 0.1764957192948648 0  0.1357996569043286 0.1472158045151807 0  0.1619764829264572 0.126298308975886 0  0.1935640279204225 0.116654032325456 0  1.82457000000085 0.2346439024393236 0  0.8027657238591595 0.149277802568535 0  1.498563450727992 0.2632867809910664 0  0.2770405925201826 0.1924926016722167 0  0.470924801584011 0.09138612536042019 0  0.550693598792917 0.2898604497866635 0  0.381089831438127 0.3238078833671811 0  2.074516462495042 0.125705772324225 0  2.083599037046577 0.2769549245607841 0  0.2692296340100125 0.2210592970306522 0  0.7614733075682367 0.2839235561638241 0  1.536698221979284 0.1258192462655419 0  1.231809489345021 0.1282542717942667 0  1.054759157670174 0.1242749934189342 0  1.754535566851005 0.1223197024158991 0  1.90452621597739 0.1324728094649104 0  0.2672409321155211 0.178737994598723 0  1.254401531996246 0.2902808614622134 0  1.04350934597445 0.2986664252663559 0  0.0749710792305778 0.3208721925318313 0  0.5425289614095572 0.165152457827861 0  0.1663208394680799 0.2644065126118989 0  0.1471335176887868 0.2433864007787126 0  0.1345556779484054 0.219852318055334 0  0.131940483167677 0.1932967226753857 0  0.1941574795820069 0.2685534232066453 0  0.2226696214021025 0.1252682734732412 0  0.2193882214552426 0.2661718674478616 0  0.1396865053227576 0.1677617654469802 0  0.8749487631478475 0.295170577255529 0  1.424301820545763 0.1157348858866879 0  1.918515045506933 0.2902236143624367 0  1.744876807925144 0.306628844405037 0  0.2443979144126529 0.254353837216211 0  0.2569054246570621 0.2306780201523878 0  0.2632507216716993 0.2062296523407826 0  0.4609453431326088 0.3138128990490959 0  0.3578015395476809 0.08253318517696946 0  0.2529777826635333 0.155582948480283 0  0.1580369715200277 0.1487041474358234 0  0.652872088668587 0.3101079993636056 0  0.297147332491062 0.2558065812325378 0  0.6188247313471635 0.1101603945467571 0  0.8951149554961688 0.1123812542864208 0  1.592749166085722 0.2985190085719691 0  1.40420309431358 0.2992155383468256 0  1.649189110727275 0.1000387439201274 0  0.2301663900864273 0.1432830242131801 0  0.2064839406544439 0.1345771465164309 0  0.2548204572493643 0.1702022465417566 0  0.1606700828011604 0.2481621709908606 0  0.2605987457303776 0.1928909671966518 0  0.1826942838524941 0.2594610608897559 0  0.1456438338561037 0.2290651013631561 0  0.1387681034994896 0.2058679665896095 0  1.140902260384949 0.3081952438204152 0  2.123402621966431 0.2039515281261525 0  0.7272188829630218 0.1047469619375249 0  0.2060868819369127 0.2616331638469837 0  0.246763614216289 0.2411610007697902 0  0.1405961691450822 0.1819800466423126 0  1.149638048863541 0.08264492713269313 0  0.1809997740285721 0.1365020267363126 0  1.993198408221569 0.09755938404998035 0  0.2287111352430851 0.2547015941619741 0  0.3818716699056283 0.2060398770290832 0  0.39147508084147 0.2656155699545688 0  0.151201080877373 0.1608659990301362 0  0.0542521118046473 0.1382221876243976 0  0.06190301158313444 0.0685934933767465 0  1.317316039400266 0.1015983144534349 0  0.2176417279723976 0.1415790407114221 0  0.2401571300978209 0.1529210337009423 0  0.2618092962776011 0.3566662607419938 0  0.1941527094396574 0.1377969918002053 0  0.9590486261329707 0.3255353063371385 0  0.1708201090411339 0.1447474051814825 0  1.837592370686806 0.3302992722413595 0  0.3197015570210796 0.1212159119695666 0  0.4155281956943757 0.1409543952531078 0  0.0549491513262805 0.2307535706287103 0  0.1668210562270142 0.3605647861782867 0  0.2854688902460447 0.2093700809023571 0  2.013251581901814 0.3292746985146142 0  0.1192191106244758 0.2809901915857802 0  0.2487958366614321 0.04556523514103697 0  0.09061021186838321 0.2240174335271237 0  1.737143840576958 0.20912817770623 0  0.04515017012776967 0.2784708690411318 0  0.5347554646753627 0.08988970780599832 0  0.977104673723579 0.08241628541188413 0  0.336509991617897 0.2888965225844298 0  0.2569238041969055 0.2173711314485607 0  1.906541186051535 0.2125389476829634 0  0.1762338839607841 0.3102437166134606 0  1.449268841077636 0.201011295143529 0  0.8555371485878378 0.2099663446585434 0  1.837208236203613 0.07556229833764837 0  1.264402545318887 0.1992523923163096 0  1.068181074047183 0.2155119107017876 0  0.3158931250274742 0.3421721218291775 0  0.2731958384900449 0.2373435058667565 0  0.09875906484220501 0.1533097574901186 0  0.7355755433976705 0.2066339904079041 0  1.567440499207928 0.2049999999995983 0  1.329829828222916 0.3295825481537897 0  0.8214190147401245 0.07894167681990104 0  1.525459989258997 0.3394220200696043 0  0.1990897327079506 0.06300531675246424 0  0.244701762210989 0.3062404318132603 0  0.1033853772622983 0.3551443431224104 0  0.1178236825374896 0.07148041782551597 0  0.1558198999929474 0.04409380269139784 0  0.3389178979413869 0.198678920661321 0  0.310790717645908 0.2196004930752872 0  2.125022007676643 0.3402049371791425 0  2.130028889485561 0.06535501282233655 0  0.4821161335597635 0.1626909543876269 0  0.2838678108956019 0.1254276466262967 0  0.5062815929260498 0.2376271077316994 0  1.663059277092996 0.3422301118688678 0  1.82292665764828 0.1574809263836269 0  2.052538557905295 0.05717536030732174 0  0.3078251537889645 0.16056368457456 0  0.8108267070172145 0.3390047366820738 0  1.487254632568403 0.0703866281621833 0  0.155004430757041 0.2369517702015699 0  0.1725545045705267 0.2519594403466565 0  0.1445581653510352 0.2167994984574706 0  0.1420710285613199 0.1942747855116325 0  1.461861739291679 0.3471998553985149 0  0.2372128969196007 0.2453440460936858 0  0.1943665918892754 0.2580518465884657 0  0.2452139232912363 0.1629124725160763 0  0.2555786751481889 0.1825885041235872 0  2.14640473333793 0.2790222779730848 0  2.145589594789407 0.1282024626544199 0  0.1486651579751984 0.1726583296292201 0  0.550000000001476 0.3603327897285098 0  0.0505668771231032 0.3660023622363767 0  1.049999999997169 0.05217028468202135 0  1.244771793631775 0.05744029386223062 0  0.1356759337238615 0.1094447816941579 0  0.5872326411628903 0.2223148728195226 0  0.2168458206248643 0.2558159203714847 0  1.749999999998732 0.05166028789524129 0  0.2855257256666041 0.1763246086558152 0  1.92
[...]
<PointData  Vectors="f_22"> 
<DataArray  type="Float64"  Name="f_22"  NumberOfComponents="3" format="ascii">0.0000000000000000e+00 0.0000000000000000e+00 0.0000000000000000e+00  0.0000000000000000e+00 0.0000000000000000e+00 0.0000000000000000e+00  0.0000000000000000e+00 0.0000000000000000e+00 0.0000000000000000e+00  0.0000000000000000e+00 0.0000000000000000e+00 0.0000000000000000e+00  0.0000000000000000e+00 0.0000000000000000e+00 0.0000000000000000e+00  0.0000000000000000e+00 0.0000000000000000e+00 0.0000000000000000e+00  0.0000000000000000e+00 0.0000000000000000e+00 0.0000000000000000e+00  0.0000000000000000e+00 0.0000000000000000e+00 0.0000000000000000e+00  0.0000000000000000e+00 0.0000000000000000e+00 0.0000000000000000e+00  0.0000000000000000e+00 0.0000000000000000e+00 0.0000000000000000e+00  0.0000000000000000e+00 0.0000000000000000e+00 0.0000000000000000e+00  0.0000000000000000e+00 0.0000000000000000e+00 0.0000000000000000e+00  0.0000000000000000e+00 0.0000000000000000e+00 0.0000000000000000e+00  0.0000000000000000e+00 0.0000000000000000e+00 0.0000000000000000e+00  0.0000000000000000e+00 0.0000000000000000e+00 0.0000000000000000e+00  0.0000000000000000e+00 0.0000000000000000e+00 0.0000000000000000e+00  0.0000000000000000e+00 0.0000000000000000e+00 0.0000000000000000e+00  0.0000000000000000e+00 0.0000000000000000e+00 0.0000000000000000e+00  0.0000000000000000e+00 0.0000000000000000e+00 0.0000000000000000e+00  0.0000000000000000e+00 0.0000000000000000e+00 0.0000000000000000e+00  0.0000000000000000e+00 0.0000000000000000e+00 0.0000000000000000e+00  0.0000000000000000e+00 0.0000000000000000e+00 0.0000000000000000e+00  0.0000000000000000e+00 0.0000000000000000e+00 0.0000000000000000e+00  0.0000000000000000e+00 0.0000000000000000e+00 0.0000000000000000e+00  0.0000000000000000e+00 0.0000000000000000e+00 0.0000000000000000e+00  0.0000000000000000e+00 0.0000000000000000e+00 0.0000000000000000e+00  0.0000000000000000e+00 0.0000000000000000e+00 0.0000000000000000e+00  0.0000000000000000e+00 0.0000000000000000e+00 0.0000000000000000e+00  0.0000000000000000e+00 0.0000000000000000e+00 0.0000000000000000e+00  0.0000000000000000e+00 0.0000000000000000e+00 0.0000000000000000e+00  0.0000000000000000e+00 0.0000000000000000e+00 0.0000000000000000e+00  0.0000000000000000e+00 0.0000000000000000e+00 0.0000000000000000e+00  0.0000000000000000e+00 0.0000000000000000e+00 0.0000000000000000e+00  0.0000000000000000e+00 0.0000000000000000e+00 0.0000000000000000e+00  0.0000000000000000e+00 0.0000000000000000e+00 0.0000000000000000e+00  0.0000000000000000e+00 0.0000000000000000e+00 0.0000000000000000e+00  0.0000000000000000e+00 0.0000000000000000e+00 0.0000000000000000e+00  0.0000000000000000e+00 0.0000000000000000e+00 0.0000000000000000e+00  0.0000000000000000e+00 0.0000000000000000e+00 0.0000000000000000e+00  0.0000000000000000e+00 0.0000000000000000e+00 0.0000000000000000e+00  0.0000000000000000e+00 0.0000000000000000e+00 0.0000000000000000e+00  0.0000000000000000e+00 0.0000000000000000e+00 0.0000000000000000e+00  0.0000000000000000e+00 0.0000000000000000e+00 0.0000000000000000e+00  0.0000000000000000e+00 0.0000000000000000e+00 0.0000000000000000e+00  0.0000000000000000e+00 0.0000000000000000e+00 0.0000000000000000e+00  0.0000000000000000e+00 0.0000000000000000e+00 0.0000000000000000e+00  0.0000000000000000e+00 0.0000000000000000e+00 0.0000000000000000e+00  0.0000000000000000e+00 0.0000000000000000e+00 0.0000000000000000e+00  0.0000000000000000e+00 0.0000000000000000e+00 0.0000000000000000e+00  0.0000000000000000e+00 0.0000000000000000e+00 0.0000000000000000e+00  0.0000000000000000e+00 0.0000000000000000e+00 0.0000000000000000e+00  0.0000000000000000e+00 0.0000000000000000e+00 0.0000000000000000e+00  0.0000000000000000e+00 0.0000000000000000e+00 0.0000000000000000e+00  0.0000000000000000e+00 0.0000000000000000e+00 0.0000000000000000e+00  0.0000000000000000e+00 0.0000000000000000e+00 0.0000000000000000e+00  0.0000000000000000e+00 0.0000000000000000e+00 0.0000000000000000e+00  0.0000000000000000e+00 0.0000000000000000e+00 0.0000000000000000e+00  1.1109965279879082e+00 -8.0599356310519208e-05 0.0000000000000000e+00  1.2371769394440526e+00 -7.2534201450201620e-05 0.0000000000000000e+00  1.2371515450740702e+00 6.4099865889770012e-05 0.0000000000000000e+00  1.1112108041696365e+00 6.9293247305022112e-05 0.0000000000000000e+00  0.0000000000000000e+00 0.0000000000000000e+00 0.0000000000000000e+00  0.0000000000000000e+00 0.0000000000000000e+00 0.0000000000000000e+00  0.0000000000000000e+00 0.0000000000000000e+00 0.0000000000000000e+00  0.0000000000000000e+00 0.0000000000000000e+00 0.0000000000000000e+00  0.0000000000000000e+00 0.0000000000000000e+00 0.0000000000000000e+00  0.0000000000000000e+00 0.0000000000000000e+00 0.0000000000000000e+00  0.0000000000000000e+00 0.0000000000000000e+00 0.0000000000000000e+00  0.0000000000000000e+00 0.0000000000000000e+00 0.0000000000000000e+00  0.0000000000000000e+00 0.0000000000000000e+00 0.0000000000000000e+00  0.0000000000000000e+00 0.0000000000000000e+00 0.0000000000000000e+00  0.0000000000000000e+00 0.0000000000000000e+00 0.0000000000000000e+00  0.0000000000000000e+00 0.0000000000000000e+00 0.0000000000000000e+00  0.0000000000000000e+00 0.0000000000000000e+00 0.0000000000000000e+00  0.0000000000000000e+00 0.0000000000000000e+00 0.0000000000000000e+00  0.0000000000000000e+00 0.0000000000000000e+00 0.0000000000000000e+00  0.0000000000000000e+00 0.0000000000000000e+00 0.0000000000000000e+00  0.0000000000000000e+00 0.0000000000000000e+00 0.0000000000000000e+00  0.0000000000000000e+00 0.0000000000000000e+00 0.0000000000000000e+00  0.0000000000000000e+00 0.0000000000000000e+00 0.0000000000000000e+00  0.0000000000000000e+00 0.0000000000000000e+00 0.0000000000000000e+00  0.0000000000000000e+00 0.0000000000000000e+00 0.0000000000000000e+00  9.6000005010346268e-01 0.0000000000000000e+00 0.0000000000000000e+00  1.4400000751565161e+00 0.0000000000000000e+00 0.0000000000000000e+00  1.4400000751590945e+00 0.0000000000000000e+00 0.0000000000000000e+00  9.6000005010710210e-01 0.0000000000000000e+00 0.0000000000000000e+00  -2.0843970476234303e-01 -3.8632640307058652e-01 0.0000000000000000e+00  1.9056836194768542e-01 -5.0599353255212462e-02 0.0000000000000000e+00  1.6049118228062884e-01 3.9971737202184388e-02 0.0000000000000000e+00  1.8424528613851627e+00 -9.3148250949418698e-02 0.0000000000000000e+00  1.9757943038572034e+00 9.8936079903273785e-02 0.0000000000000000e+00  1.4730044989825222e+00 2.2084630514788806e-01 0.0000000000000000e+00  1.3214883839815676e+00 3.5987037223864726e-01 0.0000000000000000e+00  1.3341286519200872e+00 2.6836572187249802e-01 0.0000000000000000e+00  1.3051817052299191e+00 -6.2448126260581105e-02 0.0000000000000000e+00  1.2599313869491382e+00 -3.1877527901722152e-01 0.0000000000000000e+00  1.4020185826303411e+00 -3.7577062695217717e-01 0.0000000000000000e+00  -2.3289533047202923e-01 4.2420163578784649e-02 0.0000000000000000e+00  1.2390108721748301e+00 -4.8446509536878221e-04 0.0000000000000000e+00  9.8709202679890182e-03 -4.0903797393358053e-02 0.0000000000000000e+00  -7.7582136536916826e-02 1.4925327907474623e-01 0.0000000000000000e+00  4.9349255368609424e-01 4.3735668996270621e-01 0.0000000000000000e+00  2.6337394176450751e-01 8.7807153134730531e-02 0.0000000000000000e+00  1.8730738106195979e+00 -2.5218073934816326e-01 0.0000000000000000e+00  1.2396949994144766e+00 -1.9322446842475974e-02 0.0000000000000000e+00  1.2840995949349210e+00 -5.4039931879082799e-02 0.0000000000000000e+00  1.3278940889446982e+00 6.4875080849006547e-02 0.0000000000000000e+00  1.7243972586487910e+00 2.1974001092767922e-01 0.0000000000000000e+00  1.2807177032138743e+00 8.9610825653792150e-02 0.0000000000000000e+00  8.6788799521033588e-01 -5.9330627190219615e-02 0.0000000000000000e+00  2.0070013281143364e+00 4.5115645223261081e-01 0.0000000000000000e+00  1.8733886963960882e+00 6.5443591573827153e-01 0.0000000000000000e+00  1.5008398394432345e+00 7.8733481445287568e-01 0.0000000000000000e+00  1.1515591464921084e+00 5.7568540576635407e-01 0.0000000000000000e+00  9.3974929077797287e-01 1.2067583940686064e-01 0.0000000000000000e+00  9.8030185343250043e-01 -3.8404063811172601e-01 0.0000000000000000e+00  1.2821045064043515e+00 -6.8986674690932082e-01 0.0000000000000000e+00  1.6369565040083514e+00 -7.1500264601097652e-01 0.0000000000000000e+00  1.8926439176344143e+00 -5.3285454966873347e-01 0.0000000000000000e+00  1.2392966675894634e+00 -7.0085950779057186e-03 0.0000000000000000e+00  1.0379936525798226e+00 -1.4115944271320766e-01 0.0000000000000000e+00  1.2350055568538976e+00 1.7193795251958976e-02 0.0000000000000000e+00  -1.3299771767413698e-01 3.5953066408404226e-02 0.0000000000000000e+00  1.9455982362952500e+00 2.7358415938299113e-01 0.0000000000000000e+00  1.6017233905780091e+00 -1.7620933550657889e-02 0.0000000000000000e+00  1.8075828780018348e+00 -1.3838283167055548e-01 0.0000000000000000e+00  1.2221252862286047e+00 -3.2150398444512758e-05 0.0000000000000000e+00  1.2279060627731198e+00 -6.6456039436337559e-06 0.0000000000000000e+00  -7.9716930151223664e-02 1.6085384691693805e-01 0.0000000000000000e+00  1.6431229449229858e+00 -3.0697153516860182e-01 0.0000000000000000e+00  1.2423517878996992e+00 -1.5839763914605953e-02 0.0000000000000000e+00  1.2649923170421218e+00 -2.6098114509293221e-02 0.0000000000000000e+00  1.3874996812660438e+00 -7.3787150475859042e-02 0.0000000000000000e+00  1.2127053591549806e+00 4.5181055242288828e-04 0.0000000000000000e+00  1.2261831826546432e+00 -1.0870521963058778e-03 0.0000000000000000e+00  -8.4115642761397144e-02 -3.3873323427892642e-02 0.0000000000000000e+00  1.3603632261584921e+00 5.7957036267925983e-02 0.0000000000000000e+00  1.3970458415143110e+00 -2.9235200659132172e-02 0.0000000000000000e+00  1.0803370210417895e+00 1.7579026321522839e-01 0.0000000000000000e+00  1.1364055867932625e+00 5.0968201063994767e-01 0.0000000000000000e+00  1.7527802298335309e+00 8.7010368631773005e-01 0.0000000000000000e+00  1.2420646835372278e+00 9.5900274906860672e-01 0.0000000000000000e+00  7.6360603572864294e-01 5.2996123064111700e-01 0.0000000000000000e+00  6.4338987850349127e-01 -1.7852404232245886e-01 0.0000000000000000e+00  2.0199056211112723e+00 6.0596136558415836e-01 0.0000000000000000e+00  1.8909870657131058e+00 -3.1004511350623898e-01 0.0000000000000000e+00  1.4780405738586571e+00 2.1719047692689045e-01 0.0000000000000000e+00  9.5700849700847179e-01 -7.8401812037415142e-01 0.0000000000000000e+00  1.2958996456778342e+00 7.5199478546827903e-02 0.0000000000000000e+00  1.3102359252594395e+00 -1.5712399711017247e-02 0.0000000000000000e+00  1.2168421958744775e+00 -7.9438109191482540e-04 0.0000000000000000e+00  1.1968627889901371e+00 -2.6220838534563693e-03 0.0000000000000000e+00  2.4703054713301137e-01 5.5763645985082509e-02 0.0000000000000000e+00  -6.4458720839932607e-02 1.5383582731721604e-01 0.0000000000000000e+00  -6.0531132121931168e-02 1.0839417944558093e-01 0.0000000000000000e+00  1.6843156503464729e+00 -1.7863934882635873e-01 0.0000000000000000e+00  1.8694519334309245e+00 5.7635489650308099e-03 0.0000000000000000e+00  -8.8329529008775564e-03 -5.9178165264594455e-02 0.0000000000000000e+00  1.4979249805778305e+00 -1.0328856952635435e+00 0.0000000000000000e+00  1.7322115512084975e+00 -2.5375523679311252e-01 0.0000000000000000e+00  4.5991656628894578e-01 8.3206131323300583e-02 0.0000000000000000e+00  1.4576758076950946e+00 2.7055530788624305e-01 0.0000000000000000e+00  1.5529793138392420e+00 1.8273572175246491e-01 0.0000000000000000e+00  1.2449067276197310e+00 -1.0041252556278598e-03 0.0000000000000000e+00  1.2461507827504437e+00 5.6124812457988220e-02 0.0000000000000000e+00  1.1693846541202879e+00 2.2708366460669231e-03 0.0000000000000000e+00  4.1461179950894278e-01 -3.4105082588482202e-02 0.0000000000000000e+00  1.6792514608124056e+00 -3.4300762890634201e-01 0.0000000000000000e+00  -5.9325885822183316e-02 -6.4792776359924836e-02 0.0000000000000000e+00  1.5193735578176371e+00 1.1275042561826847e+00 0.0000000000000000e+00  -4.2441937314976703e-02 2.9845688699541781e-02 0.0000000000000000e+00  1.8868704268182321e+00 7.7728326459869734e-01 0.0000000000000000e+00  8.4815186682793542e-01 9.3968540701968606e-01 0.0000000000000000e+00  4.3098103688042483e-01 2.1811271047511213e-01 0.0000000000000000e+00  1.2850716035495922e+00 -2.6407949838926675e-02 0.0000000000000000e+00  1.2390644610506587e+00 -3.5367396197222954e-05 0.0000000000000000e+00  1.3413260678814547e+00 -8.0559083477114171e-02 0.0000000000000000e+00  1.3763861347683179e+00 2.5139486277978507e-01 0.0000000000000000e+00  -5.7166766547742186e-02 9.7929824508892607e-02 0.0000000000000000e+00  5.8961562479371632e-01 -6.1151737190225453e-01 0.0000000000000000e+00  1.0366436499542941e+00 -8.0955434070559190e-02 0.0000000000000000e+00  1.9206344271195999e+00 -7.9736083455974338e-01 0.0000000000000000e+00  1.1721856680813518e+00 -1.3065316118267677e-04 0.0000000000000000e+00  2.7752986123472706e-01 3.2405859653380505e-02 0.0000000000000000e+00  -4.2117492100136428e-01 -1.3774310251920768e-01 0.0000000000000000e+00  1.2300915461466813e+00 -2.4215968189335657e-01 0.0000000000000000e+00  1.1520242218478918e+00 -1.0736425711948625e+00 0.0000000000000000e+00  1.3184075114316824e+00 -1.3032474107648229e-01 0.0000000000000000e+00  8.8265485851476799e-01 -1.0963572883839169e-01 0.0000000000000000e+00  1.2434771879321491e+00 -3.6972345507282053e-02 0.0000000000000000e+00  6.8800338535237071e-01 -5.9821697992380428e-02 0.0000000000000000e+00  3.1751723930066840e-03 -4.9501618014531228e-02 0.0000000000000000e+00  1.4197677931755575e+00 7.6256331348856968e-02 0.0000000000000000e+00  1.7660851194673652e+00 -5.1289199173291677e-01 0.0000000000000000e+00  1.0800922084081030e+00 3.7807841119383373e-02 0.0000000000000000e+00  1.7518438364332602e+00 -9.9256199533008993e-01 0.0000000000000000e+00  1.1017933549008831e+00 -1.4902840198491797e-03 0.0000000000000000e+00  1.4805388361447600e+00 -7.2455156560805060e-03 0.0000000000000000e+00  8.2189379116838013e-01 -7.4570083163672821e-02 0.0000000000000000e+00  1.4145620278093942e+00 9.4186228422285939e-02 0.0000000000000000e+00  1.0410599209671938e+00 1.6631949443106650e-01 0.0000000000000000e+00  -1.5686006739567115e-01 1.1103992608012944e-01 0.0000000000000000e+00  1.1053832493919538e+00 4.8069361825289494e-05 0.0000000000000000e+00  1.3679063795456734e+00 4.4638485339053385e-01 0.0000000000000000e+00  1.3395904040111033e+00 -8.6973139623851753e-02 0.0000000000000000e+00  1.2719072700096923e+00 1.7705602616464991e-01 0.0000000000000000e+00  1.2340399242897468e+00 -1.5093705248418444e-02 0.0000000000000000e+00  1.3043513720665405e+00 1.2016144392598886e-01 0.0000000000000000e+00  1.7087645371737941e+00 4.0088169645773303e-01 0.0000000000000000e+00  9.1214178957851488e-01 4.1182296568756251e-02 0.0000000000000000e+00  1.9478548843781387e+00 -5.5749475221658108e-02 0.0000000000000000e+00  -5.0295839880765379e-02 1.3602386119874837e-01 0.0000000000000000e+00  1.2391892282337367e+00 -2.0559428209873934e-03 0.0000000000000000e+00  1.5871386754302399e+00 4.1557385017835052e-01 0.0000000000000000e+00  1.1912205265176690e+00 -7.5139211408037374e-03 0.0000000000000000e+00  1.3691400877316626e+00 -1.4037993645338942e-01 0.0000000000000000e+00  1.0738619515443606e+00 -6.5222002534428842e-04 0.0000000000000000e+00  1.3431971735496193e+00 -5.4420001668978632e-02 0.0000000000000000e+00  1.3792673300545997e+00 9.6099276647674717e-02 0.0000000000000000e+00  1.6590711447148647e+00 -3.7664449726380937e-04 0.0000000000000000e+00  -3.2993283772576295e-03 1.5248160589047918e-01 0.0000000000000000e+00  1.2657270165803383e+00 -3.0937514219522699e-01 0.0000000000000000e+00  1.1590865190669375e+00 -2.7159860971719402e-01 0.0000000000000000e+00  1.1916671038953404e+00 4.7215558709560894e-02 0.0000000000000000e+00  1.0109219045344029e+00 9.2231553482625156e-02 0.0000000000000000e+00  1.1427087349864913e+00 5.5448944042761440e-02 0.0000000000000000e+00  1.0249425664660583e+00 5.3062827834020818e-03 0.0000000000000000e+00  1.3680478347930809e+00 -2.2193825275633214e-01 0.0000000000000000e+00  1.9068685078477607e+00 2.3112523967087353e-01 0.0000000000000000e+00  8.5047719194898974e-01 1.4397370709406590e-01 0.0000000000000000e+00  1.0569740581819886e+00 -2.3553822975589755e-01 0.0000000000000000e+00  9.4937291710246097e-01 -1.5623150783596512e-01 0.0000000000000000e+00  -3.5401734753809394e-01 1.5148508322948019e-02 0.0000000000000000e+00  -1.6539817573839166e-01 1.1657952951653010e-01 0.0000000000000000e+00  1.0369058431330545e+00 6.4676295061008696e-05 0.0000000000000000e+00  1.0026696215732043e+00 -3.3161951511731863e-05 0.0000000000000000e+00  7.0654464425110475e-01 3.7763589533684728e-03 0.0000000000000000e+00  1.3936700076627444e+00 -4.7417664622423139e-02 0.0000000000000000e+00  3.4001982594389239e-02 -2.2883951382193296e-01 0.0000000000000000e+00  1.0220363513080966e+00 4.4393226605419717e-03 0.0000000000000000e+00  1.2324426017364252e+00 -2.7861806231632463e-03 0.0000000000000000e+00  9.2911773465614544e-01 -1.3164740343650230e-06 0.0000000000000000e+00  -6.7410929496332988e-03 -1.0836047605176284e-02 0.0000000000000000e+00  8.1398901519943145e-01 -1.5327365506537365e-02 0.0000000000000000e+00  9.9541876697844311e-01 -3.0134223045296959e-02 0.0000000000000000e+00  1.1003194812470736e+00 1.1472741879956052e+00 0.0000000000000000e+00  1.6672228311892738e+00 9.6531568237302268e-01 0.0000000000000000e+00  4.5513642067701793e-01 6.6797364612204246e-01 0.0000000000000000e+00  3.0292469484409890e-01 -2.3106695223848583e-01 0.0000000000000000e+00  9.5667834918193784e-01 9.5387171028960566e-03 0.0000000000000000e+00  -3.8714725326523758e-02 5.7724164136390220e-02 0.0000000000000000e+00  1.3981044605158086e+00 3.7072711675985620e-01 0.0000000000000000e+00  -5.8453295897739198e-02 -6.3869256201371238e-02 0.0000000000000000e+00  -3.1828420578189187e-02 -2.5181543772282409e-02 0.0000000000000000e+00  1.2265220587515619e+00 5.4738690776080295e-05 0.0000000000000000e+00  1.2243435010343597e+00 -3.8081490879860641e-05 0.0000000000000000e+00  7.3575793166613357e-01 -9.7207746824802743e-01 0.0000000000000000e+00  1.1690252953193920e+00 -5.8713748706700174e-02 0.0000000000000000e+00  6.1257863481952801e-01 5.4177711795742600e-02 0.0000000000000000e+00  5.0960424132121451e-01 -3.9654626532237815e-02 0.0000000000000000e+00  7.7319670738453905e-01 -2.7136763417771638e-02 0.0000000000000000e+00  1.3739570499409597e+00 -4.6679650517140875e-01 0.0000000000000000e+00  8.8345834225989267e-02 4.1417102302946252e-01 0.0000000000000000e+00  4.4274472409716331e-01 3.0181833691803384e-02 0.0000000000000000e+00  8.7004227653285271e-01 3.0645695698180785e-04 0.0000000000000000e+00  -1.3076583743096667e-01 -1.6246155911370644e-02 0.0000000000000000e+00  9.9961520735579468e-01 -1.7156197417364481e-04 0.0000000000000000e+00  1.6250155992058886e+00 1.1972273059956520e-01 0.0000000000000000e+00  9.2616588142989120e-01 -4.3542226456010471e-03 0.0000000000000000e+00  1.7993493199366344e+00 1.5707516642690914e-01 0.0000000000000000e+00  1.4586704717069807e+00 -8.5655560035842425e-03 0.0000000000000000e+00  1.5807711962041726e+00 5.9455751435913951e-01 0.0000000000000000e+00  9.1367569398923409e-01 -1.5164220574917686e-01 0.0000000000000000e+00  1.2068219706567562e+00 -9.8104760498510836e-03 0.0000000000000000e+00  1.2389080209010717e+00 -2.2257221187354966e-02 0.0000000000000000e+00  1.1954618536844872e+00 -1.2922335394657356e-03 0.0000000000000000e+00  1.2221297270045308e+00 -8.0230600707313898e-03 0.0000000000000000e+00  1.1945717956008295e+00 6.4161118096260053e-04 0.0000000000000000e+00  1.2496617488872872e+00 -5.7984417589909520e-02 0.0000000000000000e+00  1.3646638836473237e+00 -7.5178898609760195e-02 0.0000000000000000e+00  1.2153392714180513e+00 2.9611311972522286e-02 0.0000000000000000e+00  1.1816836638782258e+00 -1.2429621033052467e-01 0.0000000000000000e+00  1.4931101345838103e+0