<?xml version="1.0"?>
<VTKFile type="UnstructuredGrid"  version="0.1"  >
<UnstructuredGrid>
<Piece  NumberOfPoints="3852" NumberOfCells="7360">
<Points>
<DataArray  type="Float64"  NumberOfComponents="3"  format="ascii">0 0 0  0 0.41 0  2.2 0.41 0  2.2 0 0  0.2 0.15 0  0.15 0.2 0  0.2 0.25 0  0.25 0.2 0  0.2097545161007899 0.1509607359798352 0  0.219134171618224 0.153806023374423 0  0.2277785116509268 0.1584265193848371 0  0.2353553390592504 0.1646446609405956 0  0.2415734806150793 0.1722214883489481 0  0.2461939766255306 0.1808658283816641 0  0.249039264020151 0.1902454838991403 0  0.2490392640201666 0.2097545161007811 0  0.2461939766255869 0.2191341716182 0  0.2415734806151802 0.2277785116509009 0  0.2353553390594108 0.235355339059244 0  0.2277785116510524 0.2415734806150789 0  0.2191341716182962 0.2461939766255471 0  0.209754516100834 0.2490392640201561 0  0.1902454838992189 0.2490392640201666 0  0.1808658283818 0.2461939766255869 0  0.1722214883490991 0.2415734806151802 0  0.164644660940756 0.2353553390594108 0  0.1584265193849211 0.2277785116510524 0  0.1538060233744529 0.2191341716182962 0  0.150960735979844 0.209754516100834 0  0.1509607359798352 0.1902454838992101 0  0.153806023374423 0.180865828381776 0  0.1584265193848371 0.1722214883490732 0  0.1646446609405956 0.1646446609407496 0  0.1722214883489481 0.1584265193849207 0  0.1808658283816641 0.1538060233744694 0  0.1902454838991403 0.150960735979849 0  0.09999999999980318 0 0  0.1999999999996354 0 0  0.2999999999994593 0 0  0.3999999999991452 0 0  0.4999999999988309 0 0  0.599999999998495 0 0  0.6999999999982023 0 0  0.7999999999979096 0 0  0.8999999999975735 0 0  0.9999999999972848 0 0  1.099999999997053 0 0  1.199999999997309 0 0  1.299999999997566 0 0  1.399999999997821 0 0  1.49999999999809 0 0  1.599999999998377 0 0  1.69999999999859 0 0  1.799999999998877 0 0  1.899999999999145 0 0  1.999999999999386 0 0  2.099999999999693 0 0  2.2 0.08199999999981657 0  2.2 0.1639999999995688 0  2.2 0.2459999999995603 0  2.2 0.327999999999785 0  2.100000000000048 0.41 0  2.000000000000269 0.41 0  1.900000000000422 0.41 0  1.800000000000679 0.41 0  1.700000000000931 0.41 0  1.600000000001326 0.41 0  1.500000000001665 0.41 0  1.400000000002032 0.41 0  1.300000000002395 0.41 0  1.200000000002644 0.41 0  1.100000000002865 0.41 0  1.000000000002617 0.41 0  0.900000000002368 0.41 0  0.8000000000021192 0.41 0  0.7000000000018587 0.41 0  0.6000000000015786 0.41 0  0.5000000000013736 0.41 0  0.4000000000010933 0.41 0  0.3000000000008329 0.41 0  0.2000000000005997 0.41 0  0.1000000000003003 0.41 0  0 0.3280000000001975 0  0 0.2460000000004372 0  0 0.1640000000004437 0  0 0.08200000000021695 0  0.439039350479032 0.2235433210862024 0  0.3557293424662716 0.1539377961885917 0  0.3450132387946972 0.2399891502764809 0  0.2900756359792848 0.08507884665974728 0  0.2884413411145515 0.3059878288466324 0  0.2102195502178943 0.3385267178242456 0  0.137328909169326 0.3152847369018352 0  0.08490385663776813 0.2628976192695439 0  0.08063302347471875 0.188368977740952 0  0.1005937615311739 0.1162460982751979 0  0.1621860847198582 0.08598327887900903 0  0.3012864586130264 0.1926027915888804 0  1.999140000000448 0.2049999999995642 0  0.2742354912953259 0.1572259708446958 0  0.2871471664627305 0.2264358039321654 0  0.6542851578645765 0.1981889790488746 0  0.2651366296338276 0.2534562504463119 0  0.2371819217149928 0.0977949043027586 0  1.651678197071202 0.2145186615851206 0  1.349674714201118 0.2086119645070391 0  0.9627539291831038 0.2056711800839285 0  0.2360880502985623 0.2733043913425156 0  1.159884231859056 0.2050429640239795 0  0.2502927927237266 0.1358797630898622 0  0.2080582834123368 0.2835355213895352 0  0.1805439632603489 0.278338480667804 0  0.1486243506827335 0.2626014098227327 0  0.1266658889266303 0.2392753516137401 0  0.1179814841582247 0.2069380844236527 0  0.1225167704961566 0.1764957192948648 0  0.1357996569043286 0.1472158045151807 0  0.1619764829264572 0.126298308975886 0  0.1935640279204225 0.116654032325456 0  1.82457000000085 0.2346439024393236 0  0.8027657238591595 0.149277802568535 0  1.498563450727992 0.2632867809910664 0  0.2770405925201826 0.1924926016722167 0  0.470924801584011 0.09138612536042019 0  0.550693598792917 0.2898604497866635 0  0.381089831438127 0.3238078833671811 0  2.074516462495042 0.125705772324225 0  2.083599037046577 0.2769549245607841 0  0.2692296340100125 0.2210592970306522 0  0.7614733075682367 0.2839235561638241 0  1.536698221979284 0.1258192462655419 0  1.231809489345021 0.1282542717942667 0  1.054759157670174 0.1242749934189342 0  1.754535566851005 0.1223197024158991 0  1.90452621597739 0.1324728094649104 0  0.2672409321155211 0.178737994598723 0  1.254401531996246 0.2902808614622134 0  1.04350934597445 0.2986664252663559 0  0.0749710792305778 0.3208721925318313 0  0.5425289614095572 0.165152457827861 0  0.1663208394680799 0.2644065126118989 0  0.1471335176887868 0.2433864007787126 0  0.1345556779484054 0.219852318055334 0  0.131940483167677 0.1932967226753857 0  0.1941574795820069 0.2685534232066453 0  0.2226696214021025 0.1252682734732412 0  0.2193882214552426 0.2661718674478616 0  0.1396865053227576 0.1677617654469802 0  0.8749487631478475 0.295170577255529 0  1.424301820545763 0.1157348858866879 0  1.918515045506933 0.2902236143624367 0  1.744876807925144 0.306628844405037 0  0.2443979144126529 0.254353837216211 0  0.2569054246570621 0.2306780201523878 0  0.2632507216716993 0.2062296523407826 0  0.4609453431326088 0.3138128990490959 0  0.3578015395476809 0.08253318517696946 0  0.2529777826635333 0.155582948480283 0  0.1580369715200277 0.1487041474358234 0  0.652872088668587 0.3101079993636056 0  0.297147332491062 0.2558065812325378 0  0.6188247313471635 0.1101603945467571 0  0.8951149554961688 0.1123812542864208 0  1.592749166085722 0.2985190085719691 0  1.40420309431358 0.2992155383468256 0  1.649189110727275 0.1000387439201274 0  0.2301663900864273 0.1432830242131801 0  0.2064839406544439 0.1345771465164309 0  0.2548204572493643 0.1702022465417566 0  0.1606700828011604 0.2481621709908606 0  0.2605987457303776 0.1928909671966518 0  0.1826942838524941 0.2594610608897559 0  0.1456438338561037 0.2290651013631561 0  0.1387681034994896 0.2058679665896095 0  1.140902260384949 0.3081952438204152 0  2.123402621966431 0.2039515281261525 0  0.7272188829630218 0.1047469619375249 0  0.2060868819369127 0.2616331638469837 0  0.246763614216289 0.2411610007697902 0  0.1405961691450822 0.1819800466423126 0  1.149638048863541 0.08264492713269313 0  0.1809997740285721 0.1365020267363126 0  1.993198408221569 0.09755938404998035 0  0.2287111352430851 0.2547015941619741 0  0.3818716699056283 0.2060398770290832 0  0.39147508084147 0.2656155699545688 0  0.151201080877373 0.1608659990301362 0  0.0542521118046473 0.1382221876243976 0  0.06190301158313444 0.0685934933767465 0  1.317316039400266 0.1015983144534349 0  0.2176417279723976 0.1415790407114221 0  0.2401571300978209 0.1529210337009423 0  0.2618092962776011 0.3566662607419938 0  0.1941527094396574 0.1377969918002053 0  0.9590486261329707 0.3255353063371385 0  0.1708201090411339 0.1447474051814825 0  1.837592370686806 0.3302992722413595 0  0.3197015570210796 0.1212159119695666 0  0.4155281956943757 0.1409543952531078 0  0.0549491513262805 0.2307535706287103 0  0.1668210562270142 0.3605647861782867 0  0.2854688902460447 0.2093700809023571 0  2.013251581901814 0.3292746985146142 0  0.1192191106244758 0.2809901915857802 0  0.2487958366614321 0.04556523514103697 0  0.09061021186838321 0.2240174335271237 0  1.737143840576958 0.20912817770623 0  0.04515017012776967 0.2784708690411318 0  0.5347554646753627 0.08988970780599832 0  0.977104673723579 0.08241628541188413 0  0.336509991617897 0.2888965225844298 0  0.2569238041969055 0.2173711314485607 0  1.906541186051535 0.2125389476829634 0  0.1762338839607841 0.3102437166134606 0  1.449268841077636 0.201011295143529 0  0.8555371485878378 0.2099663446585434 0  1.837208236203613 0.07556229833764837 0  1.264402545318887 0.1992523923163096 0  1.068181074047183 0.2155119107017876 0  0.3158931250274742 0.3421721218291775 0  0.2731958384900449 0.2373435058667565 0  0.09875906484220501 0.1533097574901186 0  0.7355755433976705 0.2066339904079041 0  1.567440499207928 0.2049999999995983 0  1.329829828222916 0.3295825481537897 0  0.8214190147401245 0.07894167681990104 0  1.525459989258997 0.3394220200696043 0  0.1990897327079506 0.06300531675246424 0  0.244701762210989 0.3062404318132603 0  0.1033853772622983 0.3551443431224104 0  0.1178236825374896 0.07148041782551597 0  0.1558198999929474 0.04409380269139784 0  0.3389178979413869 0.198678920661321 0  0.310790717645908 0.2196004930752872 0  2.125022007676643 0.3402049371791425 0  2.130028889485561 0.06535501282233655 0  0.4821161335597635 0.1626909543876269 0  0.2838678108956019 0.1254276466262967 0  0.5062815929260498 0.2376271077316994 0  1.663059277092996 0.3422301118688678 0  1.82292665764828 0.1574809263836269 0  2.052538557905295 0.05717536030732174 0  0.3078251537889645 0.16056368457456 0  0.8108267070172145 0.3390047366820738 0  1.487254632568403 0.0703866281621833 0  0.155004430757041 0.2369517702015699 0  0.1725545045705267 0.2519594403466565 0  0.1445581653510352 0.2167994984574706 0  0.1420710285613199 0.1942747855116325 0  1.461861739291679 0.3471998553985149 0  0.2372128969196007 0.2453440460936858 0  0.1943665918892754 0.2580518465884657 0  0.2452139232912363 0.1629124725160763 0  0.2555786751481889 0.1825885041235872 0  2.14640473333793 0.2790222779730848 0  2.145589594789407 0.1282024626544199 0  0.1486651579751984 0.1726583296292201 0  0.550000000001476 0.3603327897285098 0  0.0505668771231032 0.3660023622363767 0  1.049999999997169 0.05217028468202135 0  1.244771793631775 0.05744029386223062 0  0.1356759337238615 0.1094447816941579 0  0.5872326411628903 0.2223148728195226 0  0.2168458206248643 0.2558159203714847 0  1.749999999998732 0.05166028789524129 0  0.2855257256666041 0.1763246086558152 0  1.92
[...]
<PointData  Vectors="f_22"> 
<DataArray  type="Float64"  Name="f_22"  NumberOfComponents="3" format="ascii">0.0000000000000000e+00 0.0000000000000000e+00 0.0000000000000000e+00  0.0000000000000000e+00 0.0000000000000000e+00 0.0000000000000000e+00  0.0000000000000000e+00 0.0000000000000000e+00 0.0000000000000000e+00  0.0000000000000000e+00 0.0000000000000000e+00 0.0000000000000000e+00  0.0000000000000000e+00 0.0000000000000000e+00 0.0000000000000000e+00  0.0000000000000000e+00 0.0000000000000000e+00 0.0000000000000000e+00  0.0000000000000000e+00 0.0000000000000000e+00 0.0000000000000000e+00  0.0000000000000000e+00 0.0000000000000000e+00 0.0000000000000000e+00  0.0000000000000000e+00 0.0000000000000000e+00 0.0000000000000000e+00  0.0000000000000000e+00 0.0000000000000000e+00 0.0000000000000000e+00  0.0000000000000000e+00 0.0000000000000000e+00 0.0000000000000000e+00  0.0000000000000000e+00 0.0000000000000000e+00 0.0000000000000000e+00  0.0000000000000000e+00 0.0000000000000000e+00 0.0000000000000000e+00  0.0000000000000000e+00 0.0000000000000000e+00 0.0000000000000000e+00  0.0000000000000000e+00 0.0000000000000000e+00 0.0000000000000000e+00  0.0000000000000000e+00 0.0000000000000000e+00 0.0000000000000000e+00  0.0000000000000000e+00 0.0000000000000000e+00 0.0000000000000000e+00  0.0000000000000000e+00 0.0000000000000000e+00 0.0000000000000000e+00  0.0000000000000000e+00 0.0000000000000000e+00 0.0000000000000000e+00  0.0000000000000000e+00 0.0000000000000000e+00 0.0000000000000000e+00  0.0000000000000000e+00 0.0000000000000000e+00 0.0000000000000000e+00  0.0000000000000000e+00 0.0000000000000000e+00 0.0000000000000000e+00  0.0000000000000000e+00 0.0000000000000000e+00 0.0000000000000000e+00  0.0000000000000000e+00 0.0000000000000000e+00 0.0000000000000000e+00  0.0000000000000000e+00 0.0000000000000000e+00 0.0000000000000000e+00  0.0000000000000000e+00 0.0000000000000000e+00 0.0000000000000000e+00  0.0000000000000000e+00 0.0000000000000000e+00 0.0000000000000000e+00  0.0000000000000000e+00 0.0000000000000000e+00 0.0000000000000000e+00  0.0000000000000000e+00 0.0000000000000000e+00 0.0000000000000000e+00  0.0000000000000000e+00 0.0000000000000000e+00 0.0000000000000000e+00  0.0000000000000000e+00 0.0000000000000000e+00 0.0000000000000000e+00  0.0000000000000000e+00 0.0000000000000000e+00 0.0000000000000000e+00  0.0000000000000000e+00 0.0000000000000000e+00 0.0000000000000000e+00  0.0000000000000000e+00 0.0000000000000000e+00 0.0000000000000000e+00  0.0000000000000000e+00 0.0000000000000000e+00 0.0000000000000000e+00  0.0000000000000000e+00 0.0000000000000000e+00 0.0000000000000000e+00  0.0000000000000000e+00 0.0000000000000000e+00 0.0000000000000000e+00  0.0000000000000000e+00 0.0000000000000000e+00 0.0000000000000000e+00  0.0000000000000000e+00 0.0000000000000000e+00 0.0000000000000000e+00  0.0000000000000000e+00 0.0000000000000000e+00 0.0000000000000000e+00  0.0000000000000000e+00 0.0000000000000000e+00 0.0000000000000000e+00  0.0000000000000000e+00 0.0000000000000000e+00 0.0000000000000000e+00  0.0000000000000000e+00 0.0000000000000000e+00 0.0000000000000000e+00  0.0000000000000000e+00 0.0000000000000000e+00 0.0000000000000000e+00  0.0000000000000000e+00 0.0000000000000000e+00 0.0000000000000000e+00  0.0000000000000000e+00 0.0000000000000000e+00 0.0000000000000000e+00  0.0000000000000000e+00 0.0000000000000000e+00 0.0000000000000000e+00  0.0000000000000000e+00 0.0000000000000000e+00 0.0000000000000000e+00  0.0000000000000000e+00 0.0000000000000000e+00 0.0000000000000000e+00  0.0000000000000000e+00 0.0000000000000000e+00 0.0000000000000000e+00  0.0000000000000000e+00 0.0000000000000000e+00 0.0000000000000000e+00  0.0000000000000000e+00 0.0000000000000000e+00 0.0000000000000000e+00  0.0000000000000000e+00 0.0000000000000000e+00 0.0000000000000000e+00  0.0000000000000000e+00 0.0000000000000000e+00 0.0000000000000000e+00  0.0000000000000000e+00 0.0000000000000000e+00 0.0000000000000000e+00  0.0000000000000000e+00 0.0000000000000000e+00 0.0000000000000000e+00  0.0000000000000000e+00 0.0000000000000000e+00 0.0000000000000000e+00  1.1028248790672892e+00 -3.5933581479581048e-05 0.0000000000000000e+00  1.2511862286445905e+00 -2.7334901052427464e-04 0.0000000000000000e+00  1.2514547699837768e+00 -1.1935425489300103e-04 0.0000000000000000e+00  1.1027920305680305e+00 1.1310657338540243e-04 0.0000000000000000e+00  0.0000000000000000e+00 0.0000000000000000e+00 0.0000000000000000e+00  0.0000000000000000e+00 0.0000000000000000e+00 0.0000000000000000e+00  0.0000000000000000e+00 0.0000000000000000e+00 0.0000000000000000e+00  0.0000000000000000e+00 0.0000000000000000e+00 0.0000000000000000e+00  0.0000000000000000e+00 0.0000000000000000e+00 0.0000000000000000e+00  0.0000000000000000e+00 0.0000000000000000e+00 0.0000000000000000e+00  0.0000000000000000e+00 0.0000000000000000e+00 0.0000000000000000e+00  0.0000000000000000e+00 0.0000000000000000e+00 0.0000000000000000e+00  0.0000000000000000e+00 0.0000000000000000e+00 0.0000000000000000e+00  0.0000000000000000e+00 0.0000000000000000e+00 0.0000000000000000e+00  0.0000000000000000e+00 0.0000000000000000e+00 0.0000000000000000e+00  0.0000000000000000e+00 0.0000000000000000e+00 0.0000000000000000e+00  0.0000000000000000e+00 0.0000000000000000e+00 0.0000000000000000e+00  0.0000000000000000e+00 0.0000000000000000e+00 0.0000000000000000e+00  0.0000000000000000e+00 0.0000000000000000e+00 0.0000000000000000e+00  0.0000000000000000e+00 0.0000000000000000e+00 0.0000000000000000e+00  0.0000000000000000e+00 0.0000000000000000e+00 0.0000000000000000e+00  0.0000000000000000e+00 0.0000000000000000e+00 0.0000000000000000e+00  0.0000000000000000e+00 0.0000000000000000e+00 0.0000000000000000e+00  0.0000000000000000e+00 0.0000000000000000e+00 0.0000000000000000e+00  0.0000000000000000e+00 0.0000000000000000e+00 0.0000000000000000e+00  9.6000004801791072e-01 0.0000000000000000e+00 0.0000000000000000e+00  1.4400000720281882e+00 0.0000000000000000e+00 0.0000000000000000e+00  1.4400000720307669e+00 0.0000000000000000e+00 0.0000000000000000e+00  9.6000004802155003e-01 0.0000000000000000e+00 0.0000000000000000e+00  1.0472597672047201e-01 3.0484148132619387e-01 0.0000000000000000e+00  3.9909670243613099e-01 1.3343977569326357e-01 0.0000000000000000e+00  5.6215096674432925e-02 1.1799395201002971e-01 0.0000000000000000e+00  1.8585808369628025e+00 -3.9166365201724319e-02 0.0000000000000000e+00  1.9365377059394155e+00 1.3144839844618059e-01 0.0000000000000000e+00  1.4549325438641403e+00 2.2523174305381907e-01 0.0000000000000000e+00  1.3078548550239288e+00 3.4996927635301783e-01 0.0000000000000000e+00  1.3285544780114626e+00 2.5014653301049150e-01 0.0000000000000000e+00  1.3066961251912688e+00 -8.4746909030304615e-02 0.0000000000000000e+00  1.2689158519070327e+00 -3.3418040777235730e-01 0.0000000000000000e+00  1.4201192472231032e+00 -3.7910524269961365e-01 0.0000000000000000e+00  -2.1472911037053413e-01 -6.7609692222409562e-02 0.0000000000000000e+00  1.2520675837172384e+00 -7.1525439570049934e-03 0.0000000000000000e+00  7.9440949985283393e-02 -1.2903950422953753e-01 0.0000000000000000e+00  -1.1883117082970325e-01 3.0195243145410437e-02 0.0000000000000000e+00  6.9483002004535954e-01 -1.8520358374463133e-01 0.0000000000000000e+00  2.1364593796617801e-01 3.0636838834683825e-02 0.0000000000000000e+00  1.8980086421861173e+00 -2.3134266334665277e-01 0.0000000000000000e+00  1.1861965884723289e+00 9.2633092539581879e-05 0.0000000000000000e+00  1.3038406579089292e+00 1.1660182932302886e-01 0.0000000000000000e+00  1.6333229696840028e+00 -3.5277911734044093e-01 0.0000000000000000e+00  1.6777835781385964e+00 2.1708891261685984e-01 0.0000000000000000e+00  1.3914163344993307e+00 -1.5263100063049487e-02 0.0000000000000000e+00  9.4308200275244836e-01 -6.7575377869430686e-02 0.0000000000000000e+00  1.9800319336395664e+00 4.5271156209688229e-01 0.0000000000000000e+00  1.8477917336575642e+00 6.4689449321070591e-01 0.0000000000000000e+00  1.4809581495186579e+00 7.6733499289964968e-01 0.0000000000000000e+00  1.1400342659616656e+00 5.4795696138589756e-01 0.0000000000000000e+00  9.3788544260983653e-01 8.9008070528508385e-02 0.0000000000000000e+00  9.8821781545620480e-01 -4.1474949297584107e-01 0.0000000000000000e+00  1.2993108081532696e+00 -7.1358757078588364e-01 0.0000000000000000e+00  1.6623977969034045e+00 -7.2700613900728306e-01 0.0000000000000000e+00  1.9226910978868574e+00 -5.3008417281673781e-01 0.0000000000000000e+00  1.2793160137139958e+00 -1.6307015361477360e-02 0.0000000000000000e+00  1.4178669760185338e+00 9.7363431067362907e-02 0.0000000000000000e+00  1.4073110561173952e+00 4.4542364826398402e-02 0.0000000000000000e+00  -1.2492580894623878e-01 -1.0409423802111568e-01 0.0000000000000000e+00  1.6033268496839794e+00 7.4477802791282105e-02 0.0000000000000000e+00  1.6416097567175070e+00 -4.7894562831243831e-01 0.0000000000000000e+00  1.9002267137834239e+00 -4.6872333615662759e-02 0.0000000000000000e+00  1.2293614006078313e+00 -1.0725913339212335e-03 0.0000000000000000e+00  1.2395144688789792e+00 -1.1799036515836023e-03 0.0000000000000000e+00  -8.8616045074032798e-02 2.8308525862174510e-02 0.0000000000000000e+00  1.1942245039122870e+00 1.5839311740537287e-01 0.0000000000000000e+00  1.2532344883176474e+00 -5.2229981952410964e-02 0.0000000000000000e+00  1.4078345149434945e+00 -6.8680636920976243e-02 0.0000000000000000e+00  1.5119743559682568e+00 6.0797590458222431e-02 0.0000000000000000e+00  1.2204006240253591e+00 4.3858417490968016e-03 0.0000000000000000e+00  1.2236163577631338e+00 -4.0751020161939105e-03 0.0000000000000000e+00  -7.5694706691182972e-02 -1.6279902839862004e-01 0.0000000000000000e+00  1.3627771688610939e+00 8.0378299369995108e-03 0.0000000000000000e+00  1.1871806884514808e+00 1.0710438111060182e-01 0.0000000000000000e+00  1.0758528372896559e+00 1.6614319184854412e-01 0.0000000000000000e+00  8.2606272294400585e-03 -3.4617773432907678e-01 0.0000000000000000e+00  1.7275116877758896e+00 8.5471702491553192e-01 0.0000000000000000e+00  1.2229037711060242e+00 9.3190435454593079e-01 0.0000000000000000e+00  7.5474036017290891e-01 4.9565781072723469e-01 0.0000000000000000e+00  6.4673274996565089e-01 -2.1455033394989012e-01 0.0000000000000000e+00  1.9883361495093312e+00 6.0120491854654468e-01 0.0000000000000000e+00  1.9410061540015213e+00 -3.0082378132415005e-01 0.0000000000000000e+00  1.4381759482297876e+00 2.1474193000421110e-01 0.0000000000000000e+00  9.7246569975925745e-01 -8.1557946422386707e-01 0.0000000000000000e+00  1.6960308738563512e+00 -3.2820350011435395e-01 0.0000000000000000e+00  1.2246429323098869e+00 -6.3501810671648760e-03 0.0000000000000000e+00  1.2337481076059664e+00 -2.6379228807024411e-03 0.0000000000000000e+00  1.2194483062797123e+00 -1.5306795894378426e-03 0.0000000000000000e+00  2.3529195126536184e-01 3.8401190756096520e-02 0.0000000000000000e+00  -6.2432914569090336e-02 5.6753975303632576e-02 0.0000000000000000e+00  -5.5364744149748187e-02 -4.4527067187552206e-02 0.0000000000000000e+00  1.9468462989865718e+00 -2.9734626325851360e-01 0.0000000000000000e+00  1.7978839262464354e+00 1.3158432716858809e-01 0.0000000000000000e+00  8.2841677155137718e-03 -1.0754796497096696e-01 0.0000000000000000e+00  1.5247213205869461e+00 -1.0553359792735337e+00 0.0000000000000000e+00  1.2701874224294691e+00 5.9715563552426902e-02 0.0000000000000000e+00  3.2327129018286527e-01 1.3634487725459160e-02 0.0000000000000000e+00  1.8945716487037931e+00 2.6716783527410548e-01 0.0000000000000000e+00  1.1538131123401025e+00 -8.8332646855353608e-02 0.0000000000000000e+00  1.2416911627317930e+00 2.3432441657519034e-02 0.0000000000000000e+00  1.3190693547458074e+00 3.8010377053830674e-02 0.0000000000000000e+00  1.1853485322355846e+00 -1.6050849057561819e-02 0.0000000000000000e+00  4.4636641232328017e-01 -3.4870598182264040e-02 0.0000000000000000e+00  1.7313349213699438e+00 -3.4299618415535221e-01 0.0000000000000000e+00  -6.5446636114338930e-02 -1.5253479973084638e-01 0.0000000000000000e+00  1.4941884969314074e+00 1.1044298523112512e+00 0.0000000000000000e+00  -4.8306370412896808e-02 -1.1723257037728434e-01 0.0000000000000000e+00  1.8555305833493785e+00 7.6616273493168574e-01 0.0000000000000000e+00  8.3227326824106618e-01 9.0645752839350757e-01 0.0000000000000000e+00  4.2778022834775914e-01 1.7969953284459730e-01 0.0000000000000000e+00  1.2215674513281827e+00 1.7631813949273292e-02 0.0000000000000000e+00  1.2542627530864923e+00 -1.0918187148789482e-03 0.0000000000000000e+00  1.4601144032003786e+00 3.1723034806610023e-01 0.0000000000000000e+00  1.3432466778660159e+00 2.4790331066885640e-01 0.0000000000000000e+00  -5.3576473275636867e-02 5.8724804925249348e-02 0.0000000000000000e+00  6.0002561042633529e-01 -6.4834094147615007e-01 0.0000000000000000e+00  9.2432240425498668e-01 1.6306894174867963e-02 0.0000000000000000e+00  1.9568823199699308e+00 -8.0636503097008472e-01 0.0000000000000000e+00  1.1687530648328166e+00 -1.1246948721371595e-03 0.0000000000000000e+00  2.6908371970799033e-01 2.8728383357819600e-02 0.0000000000000000e+00  -4.0448829123642999e-01 3.0799965013554031e-01 0.0000000000000000e+00  9.6461240361406475e-01 8.4318843308880509e-02 0.0000000000000000e+00  1.1744474390206139e+00 -1.1030919302174123e+00 0.0000000000000000e+00  1.3207710556543157e+00 -1.4274586737662581e-01 0.0000000000000000e+00  8.8585851182807018e-01 -1.1627057636873402e-01 0.0000000000000000e+00  1.1745760554881588e+00 -1.0717250711442494e-01 0.0000000000000000e+00  7.2734673703837849e-01 -5.9800868287913735e-02 0.0000000000000000e+00  4.9561149134681711e-03 -6.1559331450221605e-02 0.0000000000000000e+00  1.4099459702219950e+00 9.1597896499592643e-02 0.0000000000000000e+00  1.8117083478910521e+00 -5.1827527036008569e-01 0.0000000000000000e+00  9.3127852702012570e-01 -4.6950761769963045e-02 0.0000000000000000e+00  1.7854303765915900e+00 -1.0098161624731621e+00 0.0000000000000000e+00  1.0925133580282356e+00 2.8556766145037609e-03 0.0000000000000000e+00  1.7214613786255106e+00 6.5379418964187169e-02 0.0000000000000000e+00  9.7355971288404997e-01 3.6272450076954188e-01 0.0000000000000000e+00  1.4131939251031580e+00 7.9047300961965078e-02 0.0000000000000000e+00  1.0264446887266434e+00 1.6480152471907447e-01 0.0000000000000000e+00  -1.6593332817704634e-01 -2.1773003675002154e-02 0.0000000000000000e+00  1.0983074953908396e+00 -1.2543177292762761e-03 0.0000000000000000e+00  1.3559738627185709e+00 4.2902887625210268e-01 0.0000000000000000e+00  1.3424832516844971e+00 -6.9093999318577168e-02 0.0000000000000000e+00  1.2686058243981362e+00 1.5301743534882825e-01 0.0000000000000000e+00  1.2115660443900622e+00 4.6765974493146498e-02 0.0000000000000000e+00  1.3026522188819873e+00 1.1050917323130283e-01 0.0000000000000000e+00  1.6706075303421153e+00 3.2379302638351078e-03 0.0000000000000000e+00  1.0782188140278219e+00 3.7387170675923315e-02 0.0000000000000000e+00  1.7900828222038954e+00 4.6195066684121745e-02 0.0000000000000000e+00  -3.4005941059133703e-02 1.3388933265680603e-02 0.0000000000000000e+00  1.2532226869936300e+00 -1.7223877618225143e-02 0.0000000000000000e+00  1.5674953429493825e+00 4.1111074555444155e-01 0.0000000000000000e+00  1.3122985566197127e+00 -2.3245411720048896e-02 0.0000000000000000e+00  1.0974506596382128e+00 2.9117559971945428e-01 0.0000000000000000e+00  1.0634797609812583e+00 2.4405345728199766e-03 0.0000000000000000e+00  1.5222436423025270e+00 5.6398796938288386e-02 0.0000000000000000e+00  1.4835246988021991e+00 -7.7514175145121482e-03 0.0000000000000000e+00  1.6640941532745401e+00 4.4194110398676378e-02 0.0000000000000000e+00  -5.0657825652852158e-02 4.7817724363964732e-02 0.0000000000000000e+00  1.2731241917281346e+00 -3.3161144384596081e-01 0.0000000000000000e+00  1.2513412460545050e+00 5.0831906873846255e-01 0.0000000000000000e+00  1.2239755570495663e+00 -7.5978292772685613e-02 0.0000000000000000e+00  9.7723605180251771e-01 2.9358745660815210e-02 0.0000000000000000e+00  9.1425812995067957e-01 -8.9848485792050903e-02 0.0000000000000000e+00  9.7873209540146278e-01 5.2726574336848325e-02 0.0000000000000000e+00  1.3839916304593514e+00 -2.1490968644196676e-01 0.0000000000000000e+00  1.8810148518768914e+00 2.4226626888811870e-01 0.0000000000000000e+00  8.4251973435511351e-01 1.3797393091811394e-01 0.0000000000000000e+00  1.0673856507211525e+00 -2.4300876827352438e-01 0.0000000000000000e+00  9.6265422335762152e-01 -1.5702074473834143e-01 0.0000000000000000e+00  -3.4044945950228689e-01 6.3523566153355276e-02 0.0000000000000000e+00  -2.0515987255698284e-01 3.1585389377281885e-02 0.0000000000000000e+00  1.0233513133113499e+00 7.0959502766211445e-05 0.0000000000000000e+00  9.8776587639239277e-01 -7.2182141368832040e-05 0.0000000000000000e+00  -6.5709055836279825e-02 2.0814769599252012e-01 0.0000000000000000e+00  1.5458114978281015e+00 -4.5696344897761490e-02 0.0000000000000000e+00  1.1029091816240291e+00 -4.9550327845950098e-01 0.0000000000000000e+00  1.0073213956693161e+00 -4.8400504549129278e-04 0.0000000000000000e+00  1.2120375047876963e+00 4.0926836021453160e-03 0.0000000000000000e+00  9.1155921136168094e-01 -2.7120049741666285e-04 0.0000000000000000e+00  1.0740941041450716e-01 -8.7609520774811628e-02 0.0000000000000000e+00  1.1623877052064699e+00 -1.0337853616177629e-01 0.0000000000000000e+00  9.6488471959673705e-01 -2.5494275050235323e-02 0.0000000000000000e+00  1.0789962537787967e+00 1.1188957302679636e+00 0.0000000000000000e+00  1.6390480881171170e+00 9.4861428246892765e-01 0.0000000000000000e+00  4.4486124170212660e-01 6.3108339447013428e-01 0.0000000000000000e+00  3.0668150985866416e-01 -2.7018235001587104e-01 0.0000000000000000e+00  8.3637441540089053e-01 5.8842541599227284e-02 0.0000000000000000e+00  -3.2633323806248726e-02 4.7402699817798308e-02 0.0000000000000000e+00  1.3692046527029482e+00 3.6478642163544839e-01 0.0000000000000000e+00  -6.6007527445136285e-02 -9.7321165870609461e-02 0.0000000000000000e+00  -4.8374072789952371e-02 -1.3718519266004442e-01 0.0000000000000000e+00  1.2367081690736192e+00 -2.1537742232987327e-04 0.0000000000000000e+00  1.2330447216224980e+00 -3.7036074585761685e-04 0.0000000000000000e+00  7.5303601922827534e-01 -1.0062797180993217e+00 0.0000000000000000e+00  9.6467460196990518e-01 -1.3808885781638700e-01 0.0000000000000000e+00  6.1029586090726873e-01 5.0597242401418753e-02 0.0000000000000000e+00  5.7646648694229041e-01 4.4271470823604275e-02 0.0000000000000000e+00  6.5658025504368700e-01 -6.2773878043729331e-02 0.0000000000000000e+00  1.3900783347441406e+00 -4.7935707123525534e-01 0.0000000000000000e+00  9.2619585031768925e-01 -5.8931414830748763e-01 0.0000000000000000e+00  4.2982572395640817e-01 2.8395005592302541e-02 0.0000000000000000e+00  8.5810103734957410e-01 1.7848212997704665e-03 0.0000000000000000e+00  -9.2748861940135874e-02 -1.3614046446995609e-01 0.0000000000000000e+00  9.8296559113110482e-01 -3.1218835906876493e-04 0.0000000000000000e+00  1.4163431736538348e+00 1.0128629219614110e-01 0.0000000000000000e+00  8.5361572537940922e-01 -2.0647696964301042e-02 0.0000000000000000e+00  1.7311758000465010e+00 1.5059126891867802e-01 0.0000000000000000e+00  1.4588853490517153e+00 -1.9706609881112249e-02 0.0000000000000000e+00  1.5613697603255599e+00 5.8164310765234828e-01 0.0000000000000000e+00  1.1226796926181732e+00 5.3229116358548142e-02 0.0000000000000000e+00  1.2852947828720926e+00 1.9369174551916852e-02 0.0000000000000000e+00  1.2032754893358815e+00 3.9588045626267804e-02 0.0000000000000000e+00  1.3057139019981321e+00 1.5471540946319355e-02 0.0000000000000000e+00  1.2342306827637779e+00 2.9899758203357343e-02 0.0000000000000000e+00  1.2128450753394646e+00 -1.2414644075062866e-02 0.0000000000000000e+00  1.1968160664029110e+00 -2.2728100232452392e-02 0.0000000000000000e+00  1.7423165882873715e+00 1.1738413065288086e-01 0.0000000000000000e+00  1.7551830654243052e+00 1.1141570816511219e-01 0.0000000000000000e+00  1.3086742330643626e+00 8.8685110822767768e-02 0.0000000000000000e+00  1.5455840626463877e+00 -2.340662630