<?xml version="1.0"?>
<VTKFile type="UnstructuredGrid"  version="0.1"  >
<UnstructuredGrid>
<Piece  NumberOfPoints="3852" NumberOfCells="7360">
<Points>
<DataArray  type="Float64"  NumberOfComponents="3"  format="ascii">0 0 0  0 0.41 0  2.2 0.41 0  2.2 0 0  0.2 0.15 0  0.15 0.2 0  0.2 0.25 0  0.25 0.2 0  0.2097545161007899 0.1509607359798352 0  0.219134171618224 0.153806023374423 0  0.2277785116509268 0.1584265193848371 0  0.2353553390592504 0.1646446609405956 0  0.2415734806150793 0.1722214883489481 0  0.2461939766255306 0.1808658283816641 0  0.249039264020151 0.1902454838991403 0  0.2490392640201666 0.2097545161007811 0  0.2461939766255869 0.2191341716182 0  0.2415734806151802 0.2277785116509009 0  0.2353553390594108 0.235355339059244 0  0.2277785116510524 0.2415734806150789 0  0.2191341716182962 0.2461939766255471 0  0.209754516100834 0.2490392640201561 0  0.1902454838992189 0.2490392640201666 0  0.1808658283818 0.2461939766255869 0  0.1722214883490991 0.2415734806151802 0  0.164644660940756 0.2353553390594108 0  0.1584265193849211 0.2277785116510524 0  0.1538060233744529 0.2191341716182962 0  0.150960735979844 0.209754516100834 0  0.1509607359798352 0.1902454838992101 0  0.153806023374423 0.180865828381776 0  0.1584265193848371 0.1722214883490732 0  0.1646446609405956 0.1646446609407496 0  0.1722214883489481 0.1584265193849207 0  0.1808658283816641 0.1538060233744694 0  0.1902454838991403 0.150960735979849 0  0.09999999999980318 0 0  0.1999999999996354 0 0  0.2999999999994593 0 0  0.3999999999991452 0 0  0.4999999999988309 0 0  0.599999999998495 0 0  0.6999999999982023 0 0  0.7999999999979096 0 0  0.8999999999975735 0 0  0.9999999999972848 0 0  1.099999999997053 0 0  1.199999999997309 0 0  1.299999999997566 0 0  1.399999999997821 0 0  1.49999999999809 0 0  1.599999999998377 0 0  1.69999999999859 0 0  1.799999999998877 0 0  1.899999999999145 0 0  1.999999999999386 0 0  2.099999999999693 0 0  2.2 0.08199999999981657 0  2.2 0.1639999999995688 0  2.2 0.2459999999995603 0  2.2 0.327999999999785 0  2.100000000000048 0.41 0  2.000000000000269 0.41 0  1.900000000000422 0.41 0  1.800000000000679 0.41 0  1.700000000000931 0.41 0  1.600000000001326 0.41 0  1.500000000001665 0.41 0  1.400000000002032 0.41 0  1.300000000002395 0.41 0  1.200000000002644 0.41 0  1.100000000002865 0.41 0  1.000000000002617 0.41 0  0.900000000002368 0.41 0  0.8000000000021192 0.41 0  0.7000000000018587 0.41 0  0.6000000000015786 0.41 0  0.5000000000013736 0.41 0  0.4000000000010933 0.41 0  0.3000000000008329 0.41 0  0.2000000000005997 0.41 0  0.1000000000003003 0.41 0  0 0.3280000000001975 0  0 0.2460000000004372 0  0 0.1640000000004437 0  0 0.08200000000021695 0  0.439039350479032 0.2235433210862024 0  0.3557293424662716 0.1539377961885917 0  0.3450132387946972 0.2399891502764809 0  0.2900756359792848 0.08507884665974728 0  0.2884413411145515 0.3059878288466324 0  0.2102195502178943 0.3385267178242456 0  0.137328909169326 0.3152847369018352 0  0.08490385663776813 0.2628976192695439 0  0.08063302347471875 0.188368977740952 0  0.1005937615311739 0.1162460982751979 0  0.1621860847198582 0.08598327887900903 0  0.3012864586130264 0.1926027915888804 0  1.999140000000448 0.2049999999995642 0  0.2742354912953259 0.1572259708446958 0  0.2871471664627305 0.2264358039321654 0  0.6542851578645765 0.1981889790488746 0  0.2651366296338276 0.2534562504463119 0  0.2371819217149928 0.0977949043027586 0  1.651678197071202 0.2145186615851206 0  1.349674714201118 0.2086119645070391 0  0.9627539291831038 0.2056711800839285 0  0.2360880502985623 0.2733043913425156 0  1.159884231859056 0.2050429640239795 0  0.2502927927237266 0.1358797630898622 0  0.2080582834123368 0.2835355213895352 0  0.1805439632603489 0.278338480667804 0  0.1486243506827335 0.2626014098227327 0  0.1266658889266303 0.2392753516137401 0  0.1179814841582247 0.2069380844236527 0  0.1225167704961566 0.1764957192948648 0  0.1357996569043286 0.1472158045151807 0  0.1619764829264572 0.126298308975886 0  0.1935640279204225 0.116654032325456 0  1.82457000000085 0.2346439024393236 0  0.8027657238591595 0.149277802568535 0  1.498563450727992 0.2632867809910664 0  0.2770405925201826 0.1924926016722167 0  0.470924801584011 0.09138612536042019 0  0.550693598792917 0.2898604497866635 0  0.381089831438127 0.3238078833671811 0  2.074516462495042 0.125705772324225 0  2.083599037046577 0.2769549245607841 0  0.2692296340100125 0.2210592970306522 0  0.7614733075682367 0.2839235561638241 0  1.536698221979284 0.1258192462655419 0  1.231809489345021 0.1282542717942667 0  1.054759157670174 0.1242749934189342 0  1.754535566851005 0.1223197024158991 0  1.90452621597739 0.1324728094649104 0  0.2672409321155211 0.178737994598723 0  1.254401531996246 0.2902808614622134 0  1.04350934597445 0.2986664252663559 0  0.0749710792305778 0.3208721925318313 0  0.5425289614095572 0.165152457827861 0  0.1663208394680799 0.2644065126118989 0  0.1471335176887868 0.2433864007787126 0  0.1345556779484054 0.219852318055334 0  0.131940483167677 0.1932967226753857 0  0.1941574795820069 0.2685534232066453 0  0.2226696214021025 0.1252682734732412 0  0.2193882214552426 0.2661718674478616 0  0.1396865053227576 0.1677617654469802 0  0.8749487631478475 0.295170577255529 0  1.424301820545763 0.1157348858866879 0  1.918515045506933 0.2902236143624367 0  1.744876807925144 0.306628844405037 0  0.2443979144126529 0.254353837216211 0  0.2569054246570621 0.2306780201523878 0  0.2632507216716993 0.2062296523407826 0  0.4609453431326088 0.3138128990490959 0  0.3578015395476809 0.08253318517696946 0  0.2529777826635333 0.155582948480283 0  0.1580369715200277 0.1487041474358234 0  0.652872088668587 0.3101079993636056 0  0.297147332491062 0.2558065812325378 0  0.6188247313471635 0.1101603945467571 0  0.8951149554961688 0.1123812542864208 0  1.592749166085722 0.2985190085719691 0  1.40420309431358 0.2992155383468256 0  1.649189110727275 0.1000387439201274 0  0.2301663900864273 0.1432830242131801 0  0.2064839406544439 0.1345771465164309 0  0.2548204572493643 0.1702022465417566 0  0.1606700828011604 0.2481621709908606 0  0.2605987457303776 0.1928909671966518 0  0.1826942838524941 0.2594610608897559 0  0.1456438338561037 0.2290651013631561 0  0.1387681034994896 0.2058679665896095 0  1.140902260384949 0.3081952438204152 0  2.123402621966431 0.2039515281261525 0  0.7272188829630218 0.1047469619375249 0  0.2060868819369127 0.2616331638469837 0  0.246763614216289 0.2411610007697902 0  0.1405961691450822 0.1819800466423126 0  1.149638048863541 0.08264492713269313 0  0.1809997740285721 0.1365020267363126 0  1.993198408221569 0.09755938404998035 0  0.2287111352430851 0.2547015941619741 0  0.3818716699056283 0.2060398770290832 0  0.39147508084147 0.2656155699545688 0  0.151201080877373 0.1608659990301362 0  0.0542521118046473 0.1382221876243976 0  0.06190301158313444 0.0685934933767465 0  1.317316039400266 0.1015983144534349 0  0.2176417279723976 0.1415790407114221 0  0.2401571300978209 0.1529210337009423 0  0.2618092962776011 0.3566662607419938 0  0.1941527094396574 0.1377969918002053 0  0.9590486261329707 0.3255353063371385 0  0.1708201090411339 0.1447474051814825 0  1.837592370686806 0.3302992722413595 0  0.3197015570210796 0.1212159119695666 0  0.4155281956943757 0.1409543952531078 0  0.0549491513262805 0.2307535706287103 0  0.1668210562270142 0.3605647861782867 0  0.2854688902460447 0.2093700809023571 0  2.013251581901814 0.3292746985146142 0  0.1192191106244758 0.2809901915857802 0  0.2487958366614321 0.04556523514103697 0  0.09061021186838321 0.2240174335271237 0  1.737143840576958 0.20912817770623 0  0.04515017012776967 0.2784708690411318 0  0.5347554646753627 0.08988970780599832 0  0.977104673723579 0.08241628541188413 0  0.336509991617897 0.2888965225844298 0  0.2569238041969055 0.2173711314485607 0  1.906541186051535 0.2125389476829634 0  0.1762338839607841 0.3102437166134606 0  1.449268841077636 0.201011295143529 0  0.8555371485878378 0.2099663446585434 0  1.837208236203613 0.07556229833764837 0  1.264402545318887 0.1992523923163096 0  1.068181074047183 0.2155119107017876 0  0.3158931250274742 0.3421721218291775 0  0.2731958384900449 0.2373435058667565 0  0.09875906484220501 0.1533097574901186 0  0.7355755433976705 0.2066339904079041 0  1.567440499207928 0.2049999999995983 0  1.329829828222916 0.3295825481537897 0  0.8214190147401245 0.07894167681990104 0  1.525459989258997 0.3394220200696043 0  0.1990897327079506 0.06300531675246424 0  0.244701762210989 0.3062404318132603 0  0.1033853772622983 0.3551443431224104 0  0.1178236825374896 0.07148041782551597 0  0.1558198999929474 0.04409380269139784 0  0.3389178979413869 0.198678920661321 0  0.310790717645908 0.2196004930752872 0  2.125022007676643 0.3402049371791425 0  2.130028889485561 0.06535501282233655 0  0.4821161335597635 0.1626909543876269 0  0.2838678108956019 0.1254276466262967 0  0.5062815929260498 0.2376271077316994 0  1.663059277092996 0.3422301118688678 0  1.82292665764828 0.1574809263836269 0  2.052538557905295 0.05717536030732174 0  0.3078251537889645 0.16056368457456 0  0.8108267070172145 0.3390047366820738 0  1.487254632568403 0.0703866281621833 0  0.155004430757041 0.2369517702015699 0  0.1725545045705267 0.2519594403466565 0  0.1445581653510352 0.2167994984574706 0  0.1420710285613199 0.1942747855116325 0  1.461861739291679 0.3471998553985149 0  0.2372128969196007 0.2453440460936858 0  0.1943665918892754 0.2580518465884657 0  0.2452139232912363 0.1629124725160763 0  0.2555786751481889 0.1825885041235872 0  2.14640473333793 0.2790222779730848 0  2.145589594789407 0.1282024626544199 0  0.1486651579751984 0.1726583296292201 0  0.550000000001476 0.3603327897285098 0  0.0505668771231032 0.3660023622363767 0  1.049999999997169 0.05217028468202135 0  1.244771793631775 0.05744029386223062 0  0.1356759337238615 0.1094447816941579 0  0.5872326411628903 0.2223148728195226 0  0.2168458206248643 0.2558159203714847 0  1.749999999998732 0.05166028789524129 0  0.2855257256666041 0.1763246086558152 0  1.92
[...]
<PointData  Vectors="f_22"> 
<DataArray  type="Float64"  Name="f_22"  NumberOfComponents="3" format="ascii">0.0000000000000000e+00 0.0000000000000000e+00 0.0000000000000000e+00  0.0000000000000000e+00 0.0000000000000000e+00 0.0000000000000000e+00  0.0000000000000000e+00 0.0000000000000000e+00 0.0000000000000000e+00  0.0000000000000000e+00 0.0000000000000000e+00 0.0000000000000000e+00  0.0000000000000000e+00 0.0000000000000000e+00 0.0000000000000000e+00  0.0000000000000000e+00 0.0000000000000000e+00 0.0000000000000000e+00  0.0000000000000000e+00 0.0000000000000000e+00 0.0000000000000000e+00  0.0000000000000000e+00 0.0000000000000000e+00 0.0000000000000000e+00  0.0000000000000000e+00 0.0000000000000000e+00 0.0000000000000000e+00  0.0000000000000000e+00 0.0000000000000000e+00 0.0000000000000000e+00  0.0000000000000000e+00 0.0000000000000000e+00 0.0000000000000000e+00  0.0000000000000000e+00 0.0000000000000000e+00 0.0000000000000000e+00  0.0000000000000000e+00 0.0000000000000000e+00 0.0000000000000000e+00  0.0000000000000000e+00 0.0000000000000000e+00 0.0000000000000000e+00  0.0000000000000000e+00 0.0000000000000000e+00 0.0000000000000000e+00  0.0000000000000000e+00 0.0000000000000000e+00 0.0000000000000000e+00  0.0000000000000000e+00 0.0000000000000000e+00 0.0000000000000000e+00  0.0000000000000000e+00 0.0000000000000000e+00 0.0000000000000000e+00  0.0000000000000000e+00 0.0000000000000000e+00 0.0000000000000000e+00  0.0000000000000000e+00 0.0000000000000000e+00 0.0000000000000000e+00  0.0000000000000000e+00 0.0000000000000000e+00 0.0000000000000000e+00  0.0000000000000000e+00 0.0000000000000000e+00 0.0000000000000000e+00  0.0000000000000000e+00 0.0000000000000000e+00 0.0000000000000000e+00  0.0000000000000000e+00 0.0000000000000000e+00 0.0000000000000000e+00  0.0000000000000000e+00 0.0000000000000000e+00 0.0000000000000000e+00  0.0000000000000000e+00 0.0000000000000000e+00 0.0000000000000000e+00  0.0000000000000000e+00 0.0000000000000000e+00 0.0000000000000000e+00  0.0000000000000000e+00 0.0000000000000000e+00 0.0000000000000000e+00  0.0000000000000000e+00 0.0000000000000000e+00 0.0000000000000000e+00  0.0000000000000000e+00 0.0000000000000000e+00 0.0000000000000000e+00  0.0000000000000000e+00 0.0000000000000000e+00 0.0000000000000000e+00  0.0000000000000000e+00 0.0000000000000000e+00 0.0000000000000000e+00  0.0000000000000000e+00 0.0000000000000000e+00 0.0000000000000000e+00  0.0000000000000000e+00 0.0000000000000000e+00 0.0000000000000000e+00  0.0000000000000000e+00 0.0000000000000000e+00 0.0000000000000000e+00  0.0000000000000000e+00 0.0000000000000000e+00 0.0000000000000000e+00  0.0000000000000000e+00 0.0000000000000000e+00 0.0000000000000000e+00  0.0000000000000000e+00 0.0000000000000000e+00 0.0000000000000000e+00  0.0000000000000000e+00 0.0000000000000000e+00 0.0000000000000000e+00  0.0000000000000000e+00 0.0000000000000000e+00 0.0000000000000000e+00  0.0000000000000000e+00 0.0000000000000000e+00 0.0000000000000000e+00  0.0000000000000000e+00 0.0000000000000000e+00 0.0000000000000000e+00  0.0000000000000000e+00 0.0000000000000000e+00 0.0000000000000000e+00  0.0000000000000000e+00 0.0000000000000000e+00 0.0000000000000000e+00  0.0000000000000000e+00 0.0000000000000000e+00 0.0000000000000000e+00  0.0000000000000000e+00 0.0000000000000000e+00 0.0000000000000000e+00  0.0000000000000000e+00 0.0000000000000000e+00 0.0000000000000000e+00  0.0000000000000000e+00 0.0000000000000000e+00 0.0000000000000000e+00  0.0000000000000000e+00 0.0000000000000000e+00 0.0000000000000000e+00  0.0000000000000000e+00 0.0000000000000000e+00 0.0000000000000000e+00  0.0000000000000000e+00 0.0000000000000000e+00 0.0000000000000000e+00  0.0000000000000000e+00 0.0000000000000000e+00 0.0000000000000000e+00  0.0000000000000000e+00 0.0000000000000000e+00 0.0000000000000000e+00  0.0000000000000000e+00 0.0000000000000000e+00 0.0000000000000000e+00  0.0000000000000000e+00 0.0000000000000000e+00 0.0000000000000000e+00  0.0000000000000000e+00 0.0000000000000000e+00 0.0000000000000000e+00  0.0000000000000000e+00 0.0000000000000000e+00 0.0000000000000000e+00  1.0160339105563392e+00 -9.9653818074678199e-02 0.0000000000000000e+00  1.5822069585010470e+00 -2.0761990073168757e-01 0.0000000000000000e+00  1.2986952342784048e+00 -1.2173154171176256e-01 0.0000000000000000e+00  8.6445741639069962e-01 3.0967657651333764e-03 0.0000000000000000e+00  0.0000000000000000e+00 0.0000000000000000e+00 0.0000000000000000e+00  0.0000000000000000e+00 0.0000000000000000e+00 0.0000000000000000e+00  0.0000000000000000e+00 0.0000000000000000e+00 0.0000000000000000e+00  0.0000000000000000e+00 0.0000000000000000e+00 0.0000000000000000e+00  0.0000000000000000e+00 0.0000000000000000e+00 0.0000000000000000e+00  0.0000000000000000e+00 0.0000000000000000e+00 0.0000000000000000e+00  0.0000000000000000e+00 0.0000000000000000e+00 0.0000000000000000e+00  0.0000000000000000e+00 0.0000000000000000e+00 0.0000000000000000e+00  0.0000000000000000e+00 0.0000000000000000e+00 0.0000000000000000e+00  0.0000000000000000e+00 0.0000000000000000e+00 0.0000000000000000e+00  0.0000000000000000e+00 0.0000000000000000e+00 0.0000000000000000e+00  0.0000000000000000e+00 0.0000000000000000e+00 0.0000000000000000e+00  0.0000000000000000e+00 0.0000000000000000e+00 0.0000000000000000e+00  0.0000000000000000e+00 0.0000000000000000e+00 0.0000000000000000e+00  0.0000000000000000e+00 0.0000000000000000e+00 0.0000000000000000e+00  0.0000000000000000e+00 0.0000000000000000e+00 0.0000000000000000e+00  0.0000000000000000e+00 0.0000000000000000e+00 0.0000000000000000e+00  0.0000000000000000e+00 0.0000000000000000e+00 0.0000000000000000e+00  0.0000000000000000e+00 0.0000000000000000e+00 0.0000000000000000e+00  0.0000000000000000e+00 0.0000000000000000e+00 0.0000000000000000e+00  0.0000000000000000e+00 0.0000000000000000e+00 0.0000000000000000e+00  9.6000005181824499e-01 0.0000000000000000e+00 0.0000000000000000e+00  1.4400000777286892e+00 0.0000000000000000e+00 0.0000000000000000e+00  1.4400000777312674e+00 0.0000000000000000e+00 0.0000000000000000e+00  9.6000005182188408e-01 0.0000000000000000e+00 0.0000000000000000e+00  1.1247088694887288e+00 -8.5346547552667262e-01 0.0000000000000000e+00  4.1670369091784909e-01 5.6973848439329056e-01 0.0000000000000000e+00  5.8649544523287234e-01 3.2573681649936054e-01 0.0000000000000000e+00  1.7447245294875482e+00 8.3674911736201230e-02 0.0000000000000000e+00  1.9551958907450582e+00 6.2921498676894658e-02 0.0000000000000000e+00  1.4458809597962317e+00 2.0701967890739109e-01 0.0000000000000000e+00  1.3066427321746472e+00 3.4480560597578891e-01 0.0000000000000000e+00  1.3293276402551095e+00 2.4551602762052191e-01 0.0000000000000000e+00  1.3083986981859974e+00 -8.6765066612420935e-02 0.0000000000000000e+00  1.2721573508670774e+00 -3.2890412597177920e-01 0.0000000000000000e+00  1.4201444979863804e+00 -3.5128881198030615e-01 0.0000000000000000e+00  -3.3005513431382660e-01 2.1495408342031899e-01 0.0000000000000000e+00  1.4811284537744247e+00 5.0140569484172975e-02 0.0000000000000000e+00  1.7715417780798978e-01 -6.0272559973770651e-02 0.0000000000000000e+00  -6.6214868028202450e-02 2.3593778286954908e-01 0.0000000000000000e+00  1.5032592423085107e+00 8.2753977241016119e-01 0.0000000000000000e+00  2.3481793578139873e-01 5.3583827869772414e-02 0.0000000000000000e+00  1.8815035622413203e+00 -1.3645177638463765e-01 0.0000000000000000e+00  1.5795587514256655e+00 -4.7012036995597006e-01 0.0000000000000000e+00  1.4939125220363745e+00 -1.2662421174681821e-02 0.0000000000000000e+00  1.6186678282744431e+00 -1.2766152756591717e-03 0.0000000000000000e+00  1.7442534249837234e+00 2.0418781442317413e-01 0.0000000000000000e+00  1.5869557228637823e+00 -1.0194492309616070e-01 0.0000000000000000e+00  1.1971133161729848e+00 -1.4335745085281755e-03 0.0000000000000000e+00  2.0008059933197884e+00 4.3836941349301811e-01 0.0000000000000000e+00  1.8630217868789389e+00 6.4290234535809632e-01 0.0000000000000000e+00  1.4899215572716737e+00 7.7000301583723363e-01 0.0000000000000000e+00  1.1448308156659415e+00 5.5164281437295570e-01 0.0000000000000000e+00  9.4060127850509645e-01 9.2973287188199277e-02 0.0000000000000000e+00  9.9144431369904074e-01 -4.1010186823544603e-01 0.0000000000000000e+00  1.3070073519457224e+00 -7.0527681041857604e-01 0.0000000000000000e+00  1.6786057047978822e+00 -7.0581835721666686e-01 0.0000000000000000e+00  1.9454299413467722e+00 -4.8090619249361705e-01 0.0000000000000000e+00  1.3915133105285389e+00 1.5201296119175683e-01 0.0000000000000000e+00  9.0914104676590568e-01 -5.2338428763290523e-01 0.0000000000000000e+00  1.4020749231395602e+00 3.2445984377508119e-01 0.0000000000000000e+00  -1.8341620594145619e-01 2.1807983797377650e-02 0.0000000000000000e+00  1.6430758003956834e+00 -3.0981987230876092e-02 0.0000000000000000e+00  1.0466942402728499e+00 -3.2578951603092425e-02 0.0000000000000000e+00  1.7497928584498577e+00 -2.7841168633312635e-01 0.0000000000000000e+00  1.1187235036589667e+00 -8.8199507887843503e-02 0.0000000000000000e+00  1.4809368178245230e+00 -2.1666249705283802e-01 0.0000000000000000e+00  -7.7645351269057028e-02 1.5431924566201663e-01 0.0000000000000000e+00  1.7679738726052534e+00 -2.2750214855157100e-01 0.0000000000000000e+00  1.1754795417046746e+00 1.9011241034939255e-01 0.0000000000000000e+00  1.1855503147018078e+00 -5.8753731169424461e-01 0.0000000000000000e+00  1.1669684006871512e+00 3.0999470944169955e-01 0.0000000000000000e+00  1.4540581938384050e+00 6.1091162248054316e-03 0.0000000000000000e+00  1.2528492433436764e+00 1.5638820663454500e-01 0.0000000000000000e+00  -1.0469938953764345e-01 -1.1227330948461403e-01 0.0000000000000000e+00  1.1880367537119358e+00 -2.8752055558529832e-01 0.0000000000000000e+00  8.8079129690238578e-01 6.5252885807864602e-01 0.0000000000000000e+00  1.0742349687709478e+00 1.6059779010840713e-01 0.0000000000000000e+00  1.1993354194855703e+00 -2.5934580953609754e-01 0.0000000000000000e+00  1.7417735900026090e+00 8.5735294421902830e-01 0.0000000000000000e+00  1.2317081438974733e+00 9.3936986729441396e-01 0.0000000000000000e+00  7.5888245373779972e-01 5.0342898409208625e-01 0.0000000000000000e+00  6.4876218232024330e-01 -2.0801439953349035e-01 0.0000000000000000e+00  2.0148126930009895e+00 5.9851672624377827e-01 0.0000000000000000e+00  2.0264066792911577e+00 -2.2815513624924263e-01 0.0000000000000000e+00  1.4890657968278354e+00 2.1215135678021274e-01 0.0000000000000000e+00  9.7706218897036790e-01 -8.1033019633362813e-01 0.0000000000000000e+00  1.0222175853173983e+00 -1.7836487489348737e-01 0.0000000000000000e+00  1.2401632138196892e+00 2.5777404727290659e-01 0.0000000000000000e+00  1.3393639141422484e+00 2.3968652453424713e-01 0.0000000000000000e+00  9.9997383622588998e-01 -8.8642412527987838e-02 0.0000000000000000e+00  2.4629862120300963e-01 3.6387448797419515e-02 0.0000000000000000e+00  -5.5388633781581632e-02 9.5288879359932965e-02 0.0000000000000000e+00  -6.8574462806970424e-02 4.1420458608773421e-02 0.0000000000000000e+00  1.4227005647265776e+00 -4.0676572545957007e-01 0.0000000000000000e+00  1.5332004782067332e+00 1.6407489563159308e-01 0.0000000000000000e+00  8.3431925376719396e-02 -9.9123717263146449e-02 0.0000000000000000e+00  1.5406109227016955e+00 -1.0485986769237752e+00 0.0000000000000000e+00  1.0147136232101066e+00 2.4834709856421913e-01 0.0000000000000000e+00  4.9040964076619448e-01 1.2040748945103466e-01 0.0000000000000000e+00  1.5119390350076780e+00 4.5477713057813668e-01 0.0000000000000000e+00  1.3091338661909850e+00 -2.0506753167570302e-01 0.0000000000000000e+00  1.3731486046491475e+00 -2.7380281735462214e-01 0.0000000000000000e+00  1.0094992294052032e+00 3.8797795704352894e-01 0.0000000000000000e+00  9.9273894349551906e-01 -3.7479888240631276e-01 0.0000000000000000e+00  5.9742288070317195e-01 -2.9093743614800149e-03 0.0000000000000000e+00  1.8499739293621806e+00 -3.1173946914776829e-01 0.0000000000000000e+00  -6.6611533516516802e-02 -1.6527655324761253e-01 0.0000000000000000e+00  1.5073368144376407e+00 1.1128902648886101e+00 0.0000000000000000e+00  -6.7243433835844968e-02 -7.4445646200830481e-02 0.0000000000000000e+00  1.8787727851530787e+00 7.7054679967349460e-01 0.0000000000000000e+00  8.3885156518452952e-01 9.1633768049231623e-01 0.0000000000000000e+00  4.3006393337258186e-01 1.8843985011346995e-01 0.0000000000000000e+00  1.4427491468597797e+00 -1.3511559498683373e-01 0.0000000000000000e+00  1.6012841464943219e+00 -3.7997382054968365e-01 0.0000000000000000e+00  7.3945071813628493e-01 1.3387817127269039e-01 0.0000000000000000e+00  1.3789456794109398e+00 2.4903599444204760e-01 0.0000000000000000e+00  -6.3018327785445555e-02 5.2950987893368176e-02 0.0000000000000000e+00  6.0178880581277194e-01 -6.4256950084346554e-01 0.0000000000000000e+00  4.5521008838397842e-01 8.9301752809332974e-02 0.0000000000000000e+00  1.9984302794966919e+00 -7.8687226758204565e-01 0.0000000000000000e+00  9.4949990035496690e-01 5.8342095856303859e-04 0.0000000000000000e+00  2.8150303702083929e-01 3.1908159667050948e-02 0.0000000000000000e+00  -2.1864498674341513e-02 3.9471732255438791e-01 0.0000000000000000e+00  1.8464366423371030e+00 -4.2229633991472521e-01 0.0000000000000000e+00  1.1831037096119030e+00 -1.1001222289631443e+00 0.0000000000000000e+00  1.3219016921801445e+00 -1.4517841247070049e-01 0.0000000000000000e+00  8.8651791369629629e-01 -1.1608393247800187e-01 0.0000000000000000e+00  1.3677833574465645e+00 -1.1721669105029806e-03 0.0000000000000000e+00  8.7888925463663925e-01 -3.6660265538583564e-02 0.0000000000000000e+00  6.5821810495219915e-02 -5.0037482278604273e-02 0.0000000000000000e+00  1.3770947023538114e+00 5.5559987380702461e-02 0.0000000000000000e+00  1.9024707207525149e+00 -5.0390244747599033e-01 0.0000000000000000e+00  5.5672916717649368e-01 -6.7608890558646703e-02 0.0000000000000000e+00  1.8177248593226294e+00 -1.0047277357998516e+00 0.0000000000000000e+00  7.6405859986286084e-01 5.7980139850236492e-02 0.0000000000000000e+00  1.7945665184561699e+00 3.1744055703377888e-01 0.0000000000000000e+00  4.8282455962536802e-01 1.5979399395198390e-01 0.0000000000000000e+00  1.4136226139347325e+00 7.3821691904424835e-02 0.0000000000000000e+00  1.0162038767740407e+00 1.5841462587082661e-01 0.0000000000000000e+00  -1.9989796795655079e-01 1.8059372492497910e-01 0.0000000000000000e+00  1.0965800071433041e+00 -1.6569651404133877e-02 0.0000000000000000e+00  1.3581347041071574e+00 4.2612725575083316e-01 0.0000000000000000e+00  1.2644832433427069e+00 -2.1773378746449162e-02 0.0000000000000000e+00  1.2703229012329988e+00 1.5097659711406089e-01 0.0000000000000000e+00  1.3611274966200724e+00 -1.1679658084370460e-01 0.0000000000000000e+00  1.3024285396927058e+00 1.0502534454759441e-01 0.0000000000000000e+00  1.7284627009327873e+00 2.5371663376494114e-01 0.0000000000000000e+00  1.1191899697389569e+00 9.2082765652052243e-02 0.0000000000000000e+00  2.0457572901651253e+00 -9.4027423432307106e-02 0.0000000000000000e+00  -3.2671861697763739e-02 5.7321440293846976e-02 0.0000000000000000e+00  1.6352117134129196e+00 3.4720146050820377e-01 0.0000000000000000e+00  1.5700739921156983e+00 4.0209145308929656e-01 0.0000000000000000e+00  1.5536148577885589e+00 4.7829846450575286e-01 0.0000000000000000e+00  1.5469090994607448e+00 -8.1007004152813644e-01 0.0000000000000000e+00  9.3590152453815412e-01 1.3762744094248358e-01 0.0000000000000000e+00  1.5228354690904924e+00 -5.3459684317566758e-01 0.0000000000000000e+00  1.5208074432372944e+00 7.1959208712637435e-01 0.0000000000000000e+00  1.6086328347851790e+00 -4.8840473927438052e-02 0.0000000000000000e+00  -2.0323347079020011e-03 1.5921567485652224e-01 0.0000000000000000e+00  1.2764699156740043e+00 -3.2943737455399896e-01 0.0000000000000000e+00  1.4671471124376860e+00 4.4608298810326713e-01 0.0000000000000000e+00  1.5149420059623613e+00 -6.6908582808482941e-02 0.0000000000000000e+00  6.0284343624508097e-01 -1.6580641001516003e-01 0.0000000000000000e+00  7.3232502556251655e-01 -2.2383936431971271e-01 0.0000000000000000e+00  1.1525772125065663e+00 -5.7813093841350235e-02 0.0000000000000000e+00  1.3608494957654640e+00 -1.7411447701705690e-01 0.0000000000000000e+00  1.8896896966917411e+00 2.0605933026192930e-01 0.0000000000000000e+00  8.3742562075674076e-01 1.3432810791280256e-01 0.0000000000000000e+00  1.0672679523291122e+00 -2.3259541018059465e-01 0.0000000000000000e+00  9.5063977378708442e-01 -1.4131000672089025e-01 0.0000000000000000e+00  -4.4814611832898021e-01 6.1366684739946376e-01 0.0000000000000000e+00  -1.5108289787606888e-01 3.8832176416451702e-01 0.0000000000000000e+00  8.3252691803297496e-01 -3.9749936673647776e-02 0.0000000000000000e+00  7.6458102782090942e-01 -6.5263694219462431e-02 0.0000000000000000e+00  4.1759431545665759e-01 -6.6182184030711755e-01 0.0000000000000000e+00  1.7899878472440525e+00 1.2940392709049475e-01 0.0000000000000000e+00  1.1752473271547978e+00 -6.5722824812133396e-01 0.0000000000000000e+00  7.7664150977906898e-01 -9.2975834242681785e-02 0.0000000000000000e+00  1.6194035811263174e+00 3.8439393751633044e-01 0.0000000000000000e+00  6.1986557733139858e-01 -2.1237965691876443e-02 0.0000000000000000e+00  1.8025551367870718e-01 2.0105562687054351e-01 0.0000000000000000e+00  9.3391044967111037e-01 -7.2577284932862862e-02 0.0000000000000000e+00  6.8698624277452747e-01 1.7145866417230562e-01 0.0000000000000000e+00  1.0883226643816841e+00 1.1289097031390209e+00 0.0000000000000000e+00  1.6564585023433069e+00 9.5628237851512399e-01 0.0000000000000000e+00  4.4863310900999559e-01 6.4082045333162974e-01 0.0000000000000000e+00  3.0755092321238847e-01 -2.6311791710418181e-01 0.0000000000000000e+00  8.6016002799980240e-01 1.8991702426282100e-01 0.0000000000000000e+00  -4.0746019227137990e-02 4.6165131198039604e-02 0.0000000000000000e+00  1.3954161965974505e+00 3.6828284920313159e-01 0.0000000000000000e+00  -5.6887475564608658e-02 -1.1325312710605918e-01 0.0000000000000000e+00  -6.3467819617231094e-02 -1.4591042273025709e-01 0.0000000000000000e+00  1.2368121562502534e+00 -1.5059679449037433e-01 0.0000000000000000e+00  1.2964650447136872e+00 -2.0096676041730224e-01 0.0000000000000000e+00  7.5684019940598068e-01 -1.0047735733986176e+00 0.0000000000000000e+00  7.1744579745135040e-01 4.1545517802142391e-02 0.0000000000000000e+00  6.0830916623238840e-01 4.7662494825849666e-02 0.0000000000000000e+00  7.0336990554653434e-01 8.4263565053796757e-02 0.0000000000000000e+00  7.7090285043322226e-01 -1.9186410563779616e-01 0.0000000000000000e+00  1.3958314103974714e+00 -4.6385756394810940e-01 0.0000000000000000e+00  9.2362664897097668e-01 1.3829427013498535e-01 0.0000000000000000e+00  4.4515280444385885e-01 3.0071005214231592e-02 0.0000000000000000e+00  8.6740630498515092e-01 3.3096797876007195e-02 0.0000000000000000e+00  -1.4972430431271549e-01 -2.2297145085629403e-03 0.0000000000000000e+00  6.9227542558466260e-01 3.4799897633206837e-02 0.0000000000000000e+00  1.2612360899266506e+00 3.0614024854541875e-02 0.0000000000000000e+00  3.9888363123402620e-01 -1.4094783271447631e-03 0.0000000000000000e+00  1.8226749619027112e+00 1.2855881642690575e-01 0.0000000000000000e+00  1.4592944433020276e+00 -2.4032518029731383e-02 0.0000000000000000e+00  1.5681313365448475e+00 5.7904807904051581e-01 0.0000000000000000e+00  1.1940480903133073e+00 -8.9534239741534183e-02 0.0000000000000000e+00  1.4505072661428673e+00 -4.1911134863088778e-01 0.0000000000000000e+00  1.4487668734964583e+00 -3.1044565430506899e-01 0.0000000000000000e+00  1.4251839611789101e+00 -4.8189928736443388e-01 0.0000000000000000e+00  1.4542236660605583e+00 -1.1076452764381831e-01 0.0000000000000000e+00  1.2604581107041843e+00 -2.8388848704676539e-01 0.0000000000000000e+00  7.5607078356218416e-01 -2.9124028191149931e-01 0.0000000000000000e+00  1.2555758831981019e+00 8.7240480697569525e-02 0.0000000000000000e+00  1.5243335295514868e+00 -4.3153514207392013e-01 0.0000000000000000e+00  8.2453178519056292e-01 3.4634364081524710e-01 0.0000000000000000e+00  1.3543517063065456e+00 4.58664469