<?xml version="1.0"?>
<VTKFile type="UnstructuredGrid"  version="0.1"  >
<UnstructuredGrid>
<Piece  NumberOfPoints="3852" NumberOfCells="7360">
<Points>
<DataArray  type="Float64"  NumberOfComponents="3"  format="ascii">0 0 0  0 0.41 0  2.2 0.41 0  2.2 0 0  0.2 0.15 0  0.15 0.2 0  0.2 0.25 0  0.25 0.2 0  0.2097545161007899 0.1509607359798352 0  0.219134171618224 0.153806023374423 0  0.2277785116509268 0.1584265193848371 0  0.2353553390592504 0.1646446609405956 0  0.2415734806150793 0.1722214883489481 0  0.2461939766255306 0.1808658283816641 0  0.249039264020151 0.1902454838991403 0  0.2490392640201666 0.2097545161007811 0  0.2461939766255869 0.2191341716182 0  0.2415734806151802 0.2277785116509009 0  0.2353553390594108 0.235355339059244 0  0.2277785116510524 0.2415734806150789 0  0.2191341716182962 0.2461939766255471 0  0.209754516100834 0.2490392640201561 0  0.1902454838992189 0.2490392640201666 0  0.1808658283818 0.2461939766255869 0  0.1722214883490991 0.2415734806151802 0  0.164644660940756 0.2353553390594108 0  0.1584265193849211 0.2277785116510524 0  0.1538060233744529 0.2191341716182962 0  0.150960735979844 0.209754516100834 0  0.1509607359798352 0.1902454838992101 0  0.153806023374423 0.180865828381776 0  0.1584265193848371 0.1722214883490732 0  0.1646446609405956 0.1646446609407496 0  0.1722214883489481 0.1584265193849207 0  0.1808658283816641 0.1538060233744694 0  0.1902454838991403 0.150960735979849 0  0.09999999999980318 0 0  0.1999999999996354 0 0  0.2999999999994593 0 0  0.3999999999991452 0 0  0.4999999999988309 0 0  0.599999999998495 0 0  0.6999999999982023 0 0  0.7999999999979096 0 0  0.8999999999975735 0 0  0.9999999999972848 0 0  1.099999999997053 0 0  1.199999999997309 0 0  1.299999999997566 0 0  1.399999999997821 0 0  1.49999999999809 0 0  1.599999999998377 0 0  1.69999999999859 0 0  1.799999999998877 0 0  1.899999999999145 0 0  1.999999999999386 0 0  2.099999999999693 0 0  2.2 0.08199999999981657 0  2.2 0.1639999999995688 0  2.2 0.2459999999995603 0  2.2 0.327999999999785 0  2.100000000000048 0.41 0  2.000000000000269 0.41 0  1.900000000000422 0.41 0  1.800000000000679 0.41 0  1.700000000000931 0.41 0  1.600000000001326 0.41 0  1.500000000001665 0.41 0  1.400000000002032 0.41 0  1.300000000002395 0.41 0  1.200000000002644 0.41 0  1.100000000002865 0.41 0  1.000000000002617 0.41 0  0.900000000002368 0.41 0  0.8000000000021192 0.41 0  0.7000000000018587 0.41 0  0.6000000000015786 0.41 0  0.5000000000013736 0.41 0  0.4000000000010933 0.41 0  0.3000000000008329 0.41 0  0.2000000000005997 0.41 0  0.1000000000003003 0.41 0  0 0.3280000000001975 0  0 0.2460000000004372 0  0 0.1640000000004437 0  0 0.08200000000021695 0  0.439039350479032 0.2235433210862024 0  0.3557293424662716 0.1539377961885917 0  0.3450132387946972 0.2399891502764809 0  0.2900756359792848 0.08507884665974728 0  0.2884413411145515 0.3059878288466324 0  0.2102195502178943 0.3385267178242456 0  0.137328909169326 0.3152847369018352 0  0.08490385663776813 0.2628976192695439 0  0.08063302347471875 0.188368977740952 0  0.1005937615311739 0.1162460982751979 0  0.1621860847198582 0.08598327887900903 0  0.3012864586130264 0.1926027915888804 0  1.999140000000448 0.2049999999995642 0  0.2742354912953259 0.1572259708446958 0  0.2871471664627305 0.2264358039321654 0  0.6542851578645765 0.1981889790488746 0  0.2651366296338276 0.2534562504463119 0  0.2371819217149928 0.0977949043027586 0  1.651678197071202 0.2145186615851206 0  1.349674714201118 0.2086119645070391 0  0.9627539291831038 0.2056711800839285 0  0.2360880502985623 0.2733043913425156 0  1.159884231859056 0.2050429640239795 0  0.2502927927237266 0.1358797630898622 0  0.2080582834123368 0.2835355213895352 0  0.1805439632603489 0.278338480667804 0  0.1486243506827335 0.2626014098227327 0  0.1266658889266303 0.2392753516137401 0  0.1179814841582247 0.2069380844236527 0  0.1225167704961566 0.1764957192948648 0  0.1357996569043286 0.1472158045151807 0  0.1619764829264572 0.126298308975886 0  0.1935640279204225 0.116654032325456 0  1.82457000000085 0.2346439024393236 0  0.8027657238591595 0.149277802568535 0  1.498563450727992 0.2632867809910664 0  0.2770405925201826 0.1924926016722167 0  0.470924801584011 0.09138612536042019 0  0.550693598792917 0.2898604497866635 0  0.381089831438127 0.3238078833671811 0  2.074516462495042 0.125705772324225 0  2.083599037046577 0.2769549245607841 0  0.2692296340100125 0.2210592970306522 0  0.7614733075682367 0.2839235561638241 0  1.536698221979284 0.1258192462655419 0  1.231809489345021 0.1282542717942667 0  1.054759157670174 0.1242749934189342 0  1.754535566851005 0.1223197024158991 0  1.90452621597739 0.1324728094649104 0  0.2672409321155211 0.178737994598723 0  1.254401531996246 0.2902808614622134 0  1.04350934597445 0.2986664252663559 0  0.0749710792305778 0.3208721925318313 0  0.5425289614095572 0.165152457827861 0  0.1663208394680799 0.2644065126118989 0  0.1471335176887868 0.2433864007787126 0  0.1345556779484054 0.219852318055334 0  0.131940483167677 0.1932967226753857 0  0.1941574795820069 0.2685534232066453 0  0.2226696214021025 0.1252682734732412 0  0.2193882214552426 0.2661718674478616 0  0.1396865053227576 0.1677617654469802 0  0.8749487631478475 0.295170577255529 0  1.424301820545763 0.1157348858866879 0  1.918515045506933 0.2902236143624367 0  1.744876807925144 0.306628844405037 0  0.2443979144126529 0.254353837216211 0  0.2569054246570621 0.2306780201523878 0  0.2632507216716993 0.2062296523407826 0  0.4609453431326088 0.3138128990490959 0  0.3578015395476809 0.08253318517696946 0  0.2529777826635333 0.155582948480283 0  0.1580369715200277 0.1487041474358234 0  0.652872088668587 0.3101079993636056 0  0.297147332491062 0.2558065812325378 0  0.6188247313471635 0.1101603945467571 0  0.8951149554961688 0.1123812542864208 0  1.592749166085722 0.2985190085719691 0  1.40420309431358 0.2992155383468256 0  1.649189110727275 0.1000387439201274 0  0.2301663900864273 0.1432830242131801 0  0.2064839406544439 0.1345771465164309 0  0.2548204572493643 0.1702022465417566 0  0.1606700828011604 0.2481621709908606 0  0.2605987457303776 0.1928909671966518 0  0.1826942838524941 0.2594610608897559 0  0.1456438338561037 0.2290651013631561 0  0.1387681034994896 0.2058679665896095 0  1.140902260384949 0.3081952438204152 0  2.123402621966431 0.2039515281261525 0  0.7272188829630218 0.1047469619375249 0  0.2060868819369127 0.2616331638469837 0  0.246763614216289 0.2411610007697902 0  0.1405961691450822 0.1819800466423126 0  1.149638048863541 0.08264492713269313 0  0.1809997740285721 0.1365020267363126 0  1.993198408221569 0.09755938404998035 0  0.2287111352430851 0.2547015941619741 0  0.3818716699056283 0.2060398770290832 0  0.39147508084147 0.2656155699545688 0  0.151201080877373 0.1608659990301362 0  0.0542521118046473 0.1382221876243976 0  0.06190301158313444 0.0685934933767465 0  1.317316039400266 0.1015983144534349 0  0.2176417279723976 0.1415790407114221 0  0.2401571300978209 0.1529210337009423 0  0.2618092962776011 0.3566662607419938 0  0.1941527094396574 0.1377969918002053 0  0.9590486261329707 0.3255353063371385 0  0.1708201090411339 0.1447474051814825 0  1.837592370686806 0.3302992722413595 0  0.3197015570210796 0.1212159119695666 0  0.4155281956943757 0.1409543952531078 0  0.0549491513262805 0.2307535706287103 0  0.1668210562270142 0.3605647861782867 0  0.2854688902460447 0.2093700809023571 0  2.013251581901814 0.3292746985146142 0  0.1192191106244758 0.2809901915857802 0  0.2487958366614321 0.04556523514103697 0  0.09061021186838321 0.2240174335271237 0  1.737143840576958 0.20912817770623 0  0.04515017012776967 0.2784708690411318 0  0.5347554646753627 0.08988970780599832 0  0.977104673723579 0.08241628541188413 0  0.336509991617897 0.2888965225844298 0  0.2569238041969055 0.2173711314485607 0  1.906541186051535 0.2125389476829634 0  0.1762338839607841 0.3102437166134606 0  1.449268841077636 0.201011295143529 0  0.8555371485878378 0.2099663446585434 0  1.837208236203613 0.07556229833764837 0  1.264402545318887 0.1992523923163096 0  1.068181074047183 0.2155119107017876 0  0.3158931250274742 0.3421721218291775 0  0.2731958384900449 0.2373435058667565 0  0.09875906484220501 0.1533097574901186 0  0.7355755433976705 0.2066339904079041 0  1.567440499207928 0.2049999999995983 0  1.329829828222916 0.3295825481537897 0  0.8214190147401245 0.07894167681990104 0  1.525459989258997 0.3394220200696043 0  0.1990897327079506 0.06300531675246424 0  0.244701762210989 0.3062404318132603 0  0.1033853772622983 0.3551443431224104 0  0.1178236825374896 0.07148041782551597 0  0.1558198999929474 0.04409380269139784 0  0.3389178979413869 0.198678920661321 0  0.310790717645908 0.2196004930752872 0  2.125022007676643 0.3402049371791425 0  2.130028889485561 0.06535501282233655 0  0.4821161335597635 0.1626909543876269 0  0.2838678108956019 0.1254276466262967 0  0.5062815929260498 0.2376271077316994 0  1.663059277092996 0.3422301118688678 0  1.82292665764828 0.1574809263836269 0  2.052538557905295 0.05717536030732174 0  0.3078251537889645 0.16056368457456 0  0.8108267070172145 0.3390047366820738 0  1.487254632568403 0.0703866281621833 0  0.155004430757041 0.2369517702015699 0  0.1725545045705267 0.2519594403466565 0  0.1445581653510352 0.2167994984574706 0  0.1420710285613199 0.1942747855116325 0  1.461861739291679 0.3471998553985149 0  0.2372128969196007 0.2453440460936858 0  0.1943665918892754 0.2580518465884657 0  0.2452139232912363 0.1629124725160763 0  0.2555786751481889 0.1825885041235872 0  2.14640473333793 0.2790222779730848 0  2.145589594789407 0.1282024626544199 0  0.1486651579751984 0.1726583296292201 0  0.550000000001476 0.3603327897285098 0  0.0505668771231032 0.3660023622363767 0  1.049999999997169 0.05217028468202135 0  1.244771793631775 0.05744029386223062 0  0.1356759337238615 0.1094447816941579 0  0.5872326411628903 0.2223148728195226 0  0.2168458206248643 0.2558159203714847 0  1.749999999998732 0.05166028789524129 0  0.2855257256666041 0.1763246086558152 0  1.92
[...]
<PointData  Vectors="f_22"> 
<DataArray  type="Float64"  Name="f_22"  NumberOfComponents="3" format="ascii">0.0000000000000000e+00 0.0000000000000000e+00 0.0000000000000000e+00  0.0000000000000000e+00 0.0000000000000000e+00 0.0000000000000000e+00  0.0000000000000000e+00 0.0000000000000000e+00 0.0000000000000000e+00  0.0000000000000000e+00 0.0000000000000000e+00 0.0000000000000000e+00  0.0000000000000000e+00 0.0000000000000000e+00 0.0000000000000000e+00  0.0000000000000000e+00 0.0000000000000000e+00 0.0000000000000000e+00  0.0000000000000000e+00 0.0000000000000000e+00 0.0000000000000000e+00  0.0000000000000000e+00 0.0000000000000000e+00 0.0000000000000000e+00  0.0000000000000000e+00 0.0000000000000000e+00 0.0000000000000000e+00  0.0000000000000000e+00 0.0000000000000000e+00 0.0000000000000000e+00  0.0000000000000000e+00 0.0000000000000000e+00 0.0000000000000000e+00  0.0000000000000000e+00 0.0000000000000000e+00 0.0000000000000000e+00  0.0000000000000000e+00 0.0000000000000000e+00 0.0000000000000000e+00  0.0000000000000000e+00 0.0000000000000000e+00 0.0000000000000000e+00  0.0000000000000000e+00 0.0000000000000000e+00 0.0000000000000000e+00  0.0000000000000000e+00 0.0000000000000000e+00 0.0000000000000000e+00  0.0000000000000000e+00 0.0000000000000000e+00 0.0000000000000000e+00  0.0000000000000000e+00 0.0000000000000000e+00 0.0000000000000000e+00  0.0000000000000000e+00 0.0000000000000000e+00 0.0000000000000000e+00  0.0000000000000000e+00 0.0000000000000000e+00 0.0000000000000000e+00  0.0000000000000000e+00 0.0000000000000000e+00 0.0000000000000000e+00  0.0000000000000000e+00 0.0000000000000000e+00 0.0000000000000000e+00  0.0000000000000000e+00 0.0000000000000000e+00 0.0000000000000000e+00  0.0000000000000000e+00 0.0000000000000000e+00 0.0000000000000000e+00  0.0000000000000000e+00 0.0000000000000000e+00 0.0000000000000000e+00  0.0000000000000000e+00 0.0000000000000000e+00 0.0000000000000000e+00  0.0000000000000000e+00 0.0000000000000000e+00 0.0000000000000000e+00  0.0000000000000000e+00 0.0000000000000000e+00 0.0000000000000000e+00  0.0000000000000000e+00 0.0000000000000000e+00 0.0000000000000000e+00  0.0000000000000000e+00 0.0000000000000000e+00 0.0000000000000000e+00  0.0000000000000000e+00 0.0000000000000000e+00 0.0000000000000000e+00  0.0000000000000000e+00 0.0000000000000000e+00 0.0000000000000000e+00  0.0000000000000000e+00 0.0000000000000000e+00 0.0000000000000000e+00  0.0000000000000000e+00 0.0000000000000000e+00 0.0000000000000000e+00  0.0000000000000000e+00 0.0000000000000000e+00 0.0000000000000000e+00  0.0000000000000000e+00 0.0000000000000000e+00 0.0000000000000000e+00  0.0000000000000000e+00 0.0000000000000000e+00 0.0000000000000000e+00  0.0000000000000000e+00 0.0000000000000000e+00 0.0000000000000000e+00  0.0000000000000000e+00 0.0000000000000000e+00 0.0000000000000000e+00  0.0000000000000000e+00 0.0000000000000000e+00 0.0000000000000000e+00  0.0000000000000000e+00 0.0000000000000000e+00 0.0000000000000000e+00  0.0000000000000000e+00 0.0000000000000000e+00 0.0000000000000000e+00  0.0000000000000000e+00 0.0000000000000000e+00 0.0000000000000000e+00  0.0000000000000000e+00 0.0000000000000000e+00 0.0000000000000000e+00  0.0000000000000000e+00 0.0000000000000000e+00 0.0000000000000000e+00  0.0000000000000000e+00 0.0000000000000000e+00 0.0000000000000000e+00  0.0000000000000000e+00 0.0000000000000000e+00 0.0000000000000000e+00  0.0000000000000000e+00 0.0000000000000000e+00 0.0000000000000000e+00  0.0000000000000000e+00 0.0000000000000000e+00 0.0000000000000000e+00  0.0000000000000000e+00 0.0000000000000000e+00 0.0000000000000000e+00  0.0000000000000000e+00 0.0000000000000000e+00 0.0000000000000000e+00  0.0000000000000000e+00 0.0000000000000000e+00 0.0000000000000000e+00  0.0000000000000000e+00 0.0000000000000000e+00 0.0000000000000000e+00  0.0000000000000000e+00 0.0000000000000000e+00 0.0000000000000000e+00  0.0000000000000000e+00 0.0000000000000000e+00 0.0000000000000000e+00  0.0000000000000000e+00 0.0000000000000000e+00 0.0000000000000000e+00  0.0000000000000000e+00 0.0000000000000000e+00 0.0000000000000000e+00  1.1039196912754563e+00 -3.0344058855588995e-05 0.0000000000000000e+00  1.2494024668261230e+00 -1.8666489891636326e-04 0.0000000000000000e+00  1.2495672368550608e+00 -4.1820733955772626e-05 0.0000000000000000e+00  1.1039324137101876e+00 1.0905275741500687e-04 0.0000000000000000e+00  0.0000000000000000e+00 0.0000000000000000e+00 0.0000000000000000e+00  0.0000000000000000e+00 0.0000000000000000e+00 0.0000000000000000e+00  0.0000000000000000e+00 0.0000000000000000e+00 0.0000000000000000e+00  0.0000000000000000e+00 0.0000000000000000e+00 0.0000000000000000e+00  0.0000000000000000e+00 0.0000000000000000e+00 0.0000000000000000e+00  0.0000000000000000e+00 0.0000000000000000e+00 0.0000000000000000e+00  0.0000000000000000e+00 0.0000000000000000e+00 0.0000000000000000e+00  0.0000000000000000e+00 0.0000000000000000e+00 0.0000000000000000e+00  0.0000000000000000e+00 0.0000000000000000e+00 0.0000000000000000e+00  0.0000000000000000e+00 0.0000000000000000e+00 0.0000000000000000e+00  0.0000000000000000e+00 0.0000000000000000e+00 0.0000000000000000e+00  0.0000000000000000e+00 0.0000000000000000e+00 0.0000000000000000e+00  0.0000000000000000e+00 0.0000000000000000e+00 0.0000000000000000e+00  0.0000000000000000e+00 0.0000000000000000e+00 0.0000000000000000e+00  0.0000000000000000e+00 0.0000000000000000e+00 0.0000000000000000e+00  0.0000000000000000e+00 0.0000000000000000e+00 0.0000000000000000e+00  0.0000000000000000e+00 0.0000000000000000e+00 0.0000000000000000e+00  0.0000000000000000e+00 0.0000000000000000e+00 0.0000000000000000e+00  0.0000000000000000e+00 0.0000000000000000e+00 0.0000000000000000e+00  0.0000000000000000e+00 0.0000000000000000e+00 0.0000000000000000e+00  0.0000000000000000e+00 0.0000000000000000e+00 0.0000000000000000e+00  9.6000004759622892e-01 0.0000000000000000e+00 0.0000000000000000e+00  1.4400000713956651e+00 0.0000000000000000e+00 0.0000000000000000e+00  1.4400000713982437e+00 0.0000000000000000e+00 0.0000000000000000e+00  9.6000004759986834e-01 0.0000000000000000e+00 0.0000000000000000e+00  1.7026008456622446e-01 1.7230536387829376e-01 0.0000000000000000e+00  3.2411707931487721e-01 1.6960554729178065e-01 0.0000000000000000e+00  1.0413504117869904e-01 1.6355351511268895e-01 0.0000000000000000e+00  1.8483631472190616e+00 -3.8288922650123576e-02 0.0000000000000000e+00  1.9482027486102091e+00 1.3747231262059448e-01 0.0000000000000000e+00  1.4593363470637051e+00 2.2803731482748835e-01 0.0000000000000000e+00  1.3095781834775926e+00 3.5272840076084039e-01 0.0000000000000000e+00  1.3291419001375506e+00 2.5265072497943564e-01 0.0000000000000000e+00  1.3064991011115219e+00 -8.1841988701102014e-02 0.0000000000000000e+00  1.2678972767981487e+00 -3.3171242623452812e-01 0.0000000000000000e+00  1.4175872640174101e+00 -3.7662318523966837e-01 0.0000000000000000e+00  -2.2302708889137113e-01 -1.8091226123512192e-02 0.0000000000000000e+00  1.2511032140986833e+00 -5.2127041748625284e-03 0.0000000000000000e+00  7.1828385437231843e-02 -1.1050357065560149e-01 0.0000000000000000e+00  -1.0644086200407371e-01 6.7514319909128234e-02 0.0000000000000000e+00  8.4944435237170313e-01 1.3005423450835671e-01 0.0000000000000000e+00  2.0862867486220110e-01 4.1895577419420467e-02 0.0000000000000000e+00  1.8931953728044748e+00 -2.2817478726383883e-01 0.0000000000000000e+00  1.1915801303890758e+00 2.7546752127223906e-02 0.0000000000000000e+00  1.2947459272911830e+00 1.1047339417054584e-01 0.0000000000000000e+00  1.6155688929348710e+00 -2.6262338975311261e-01 0.0000000000000000e+00  1.6735712918389258e+00 2.2177840860788364e-01 0.0000000000000000e+00  1.4723475091696383e+00 7.8819816855391203e-02 0.0000000000000000e+00  9.4889045344534917e-01 -6.3829262651015087e-02 0.0000000000000000e+00  1.9823486369701637e+00 4.5727956334651187e-01 0.0000000000000000e+00  1.8500553425658923e+00 6.5077562624783003e-01 0.0000000000000000e+00  1.4831292107306890e+00 7.7142619016359715e-01 0.0000000000000000e+00  1.1414716684310369e+00 5.5264238876150029e-01 0.0000000000000000e+00  9.3811765853773432e-01 9.4116889635994391e-02 0.0000000000000000e+00  9.8712773320654135e-01 -4.0969776271692282e-01 0.0000000000000000e+00  1.2971583905181365e+00 -7.0927815155390372e-01 0.0000000000000000e+00  1.6595686550371969e+00 -7.2350986599327161e-01 0.0000000000000000e+00  1.9195033075717138e+00 -5.2694126241606254e-01 0.0000000000000000e+00  1.2775937387753749e+00 -2.0281367956347638e-02 0.0000000000000000e+00  1.3331099209516302e+00 1.1517927961150799e-02 0.0000000000000000e+00  1.3652113548115303e+00 5.9030127500895785e-02 0.0000000000000000e+00  -1.2938710796276673e-01 -6.8305439596145823e-02 0.0000000000000000e+00  1.6668830257286948e+00 4.6696630327925613e-02 0.0000000000000000e+00  1.5620085054425146e+00 -4.0374813230535789e-01 0.0000000000000000e+00  1.9127588231842481e+00 -7.1079846917894166e-02 0.0000000000000000e+00  1.2286944305915615e+00 -7.7337195858442887e-04 0.0000000000000000e+00  1.2377512534502417e+00 -7.1415637139853061e-04 0.0000000000000000e+00  -8.4626864300668278e-02 5.7824274031400377e-02 0.0000000000000000e+00  1.4317162139686088e+00 7.9780187069787345e-02 0.0000000000000000e+00  1.2865523586713186e+00 -4.1092217688691916e-02 0.0000000000000000e+00  1.3728987984567815e+00 -1.1147200690848315e-01 0.0000000000000000e+00  1.5890854899280618e+00 1.0693312606764728e-01 0.0000000000000000e+00  1.2118677463808933e+00 7.7076476203336713e-03 0.0000000000000000e+00  1.2266174865860398e+00 -2.7210797843856532e-03 0.0000000000000000e+00  -8.0744065135602450e-02 -1.3678410793109741e-01 0.0000000000000000e+00  1.4044442496335279e+00 1.0544070608636364e-02 0.0000000000000000e+00  1.2084585959452856e+00 1.2121547844914771e-01 0.0000000000000000e+00  1.0763061564747121e+00 1.6745106283737604e-01 0.0000000000000000e+00  1.3721126480484516e-01 -4.1201660518408328e-01 0.0000000000000000e+00  1.7298589678367011e+00 8.5853060587509011e-01 0.0000000000000000e+00  1.2252851010678252e+00 9.3665271102540804e-01 0.0000000000000000e+00  7.5600337006496277e-01 5.0145586665451602e-01 0.0000000000000000e+00  6.4622480877358313e-01 -2.0846569493782294e-01 0.0000000000000000e+00  1.9890500183105673e+00 6.0461228277414103e-01 0.0000000000000000e+00  1.9394585742316774e+00 -2.9767374923295697e-01 0.0000000000000000e+00  1.4323079248429165e+00 2.1755605636760583e-01 0.0000000000000000e+00  9.7030331794465274e-01 -8.1017829794480012e-01 0.0000000000000000e+00  1.6133183707584484e+00 -3.1891281414001937e-01 0.0000000000000000e+00  1.2194062014602916e+00 -1.9780803869310234e-02 0.0000000000000000e+00  1.2319561223860021e+00 -5.4855082939454809e-03 0.0000000000000000e+00  1.2149083602518367e+00 -1.1037375109869557e-03 0.0000000000000000e+00  2.2688211238903144e-01 4.1390424318217926e-02 0.0000000000000000e+00  -6.1367736924682378e-02 7.1764943163200187e-02 0.0000000000000000e+00  -5.6022143171572301e-02 -1.5232429011168456e-02 0.0000000000000000e+00  1.9023591084070834e+00 -3.3130168155527845e-01 0.0000000000000000e+00  1.7836530719735602e+00 1.1316200682020855e-01 0.0000000000000000e+00  1.1061462437258848e-02 -1.0241904564292824e-01 0.0000000000000000e+00  1.5215805449529454e+00 -1.0511689224111826e+00 0.0000000000000000e+00  1.3266443912586203e+00 9.9747681699919974e-02 0.0000000000000000e+00  3.3389103289387856e-01 4.1267619676008289e-02 0.0000000000000000e+00  1.9081629164041272e+00 3.8868286978992056e-01 0.0000000000000000e+00  1.1655517320652862e+00 -6.3133524547151390e-02 0.0000000000000000e+00  1.2425865598448147e+00 7.1615508633146368e-03 0.0000000000000000e+00  1.2869514144006304e+00 5.3161798660803603e-02 0.0000000000000000e+00  1.1764998998338472e+00 -1.9133605208313538e-02 0.0000000000000000e+00  4.5157261870628579e-01 -3.3017114960501588e-02 0.0000000000000000e+00  1.7318748080235371e+00 -3.4097001046673669e-01 0.0000000000000000e+00  -6.6164321221698200e-02 -1.4214516352069959e-01 0.0000000000000000e+00  1.4968086179011633e+00 1.1083387327852894e+00 0.0000000000000000e+00  -4.8910755354645563e-02 -9.1843938613106163e-02 0.0000000000000000e+00  1.8560034074216567e+00 7.6847778278940260e-01 0.0000000000000000e+00  8.3450747671372194e-01 9.1202950746761924e-01 0.0000000000000000e+00  4.2826708680074588e-01 1.8624801265572061e-01 0.0000000000000000e+00  1.2373549840803502e+00 -1.0480024048662332e-02 0.0000000000000000e+00  1.2522797146841536e+00 -7.2545098913427762e-04 0.0000000000000000e+00  1.3751458238401870e+00 2.2868425113519500e-01 0.0000000000000000e+00  1.3379040543927410e+00 2.4942240980104824e-01 0.0000000000000000e+00  -5.5811527483997612e-02 6.2268684575638930e-02 0.0000000000000000e+00  5.9844814209690045e-01 -6.4208076754935905e-01 0.0000000000000000e+00  9.0469904148862723e-01 -1.2765687819405513e-02 0.0000000000000000e+00  1.9541038668223476e+00 -8.0340369652739307e-01 0.0000000000000000e+00  1.1694017264854288e+00 -1.0893056779708251e-03 0.0000000000000000e+00  2.6222639033489875e-01 3.0782104046029636e-02 0.0000000000000000e+00  -3.8466065111793973e-01 3.3539424376806720e-01 0.0000000000000000e+00  1.0558670326600723e+00 6.1002760469969254e-02 0.0000000000000000e+00  1.1714766897763056e+00 -1.0981126635153244e+00 0.0000000000000000e+00  1.3205254819881989e+00 -1.4150419235910189e-01 0.0000000000000000e+00  8.8557720417820185e-01 -1.1554934828039869e-01 0.0000000000000000e+00  1.1983233751047537e+00 -7.5905065799540802e-02 0.0000000000000000e+00  7.3191443132092959e-01 -5.8382997847759459e-02 0.0000000000000000e+00  8.8775571316021384e-03 -6.0667913253803357e-02 0.0000000000000000e+00  1.4172808290085044e+00 9.2932734362008204e-02 0.0000000000000000e+00  1.8112527690042166e+00 -5.1644374937815340e-01 0.0000000000000000e+00  9.1717416775227989e-01 4.7768902460471191e-03 0.0000000000000000e+00  1.7824396734105237e+00 -1.0065999517151569e+00 0.0000000000000000e+00  1.0961845645493020e+00 1.8729746832447094e-03 0.0000000000000000e+00  1.6978566231612520e+00 7.5821570063183893e-02 0.0000000000000000e+00  8.1887750382889002e-01 2.9351830963877801e-01 0.0000000000000000e+00  1.4133215008004620e+00 8.0630568745801046e-02 0.0000000000000000e+00  1.0293921756901496e+00 1.6645897791815967e-01 0.0000000000000000e+00  -1.6303051787651954e-01 1.8611561453762183e-02 0.0000000000000000e+00  1.0987168163545245e+00 -7.2635922771508040e-04 0.0000000000000000e+00  1.3573028003078764e+00 4.3226454534368547e-01 0.0000000000000000e+00  1.3370236764688461e+00 -6.8635371485643193e-02 0.0000000000000000e+00  1.2689726682888229e+00 1.5637676763740918e-01 0.0000000000000000e+00  1.2146549221133647e+00 3.7263673024838885e-02 0.0000000000000000e+00  1.3028031967457208e+00 1.1140440742315362e-01 0.0000000000000000e+00  1.7565277293724129e+00 6.0553269809582068e-02 0.0000000000000000e+00  1.0813346829342538e+00 5.4677849787588613e-02 0.0000000000000000e+00  1.8209890810328750e+00 5.0186578974717920e-02 0.0000000000000000e+00  -3.5125125821639458e-02 3.2499820029715118e-02 0.0000000000000000e+00  1.2495679971483777e+00 -1.3798220623794129e-02 0.0000000000000000e+00  1.5701915177578765e+00 4.1453389695411935e-01 0.0000000000000000e+00  1.3247976073396317e+00 -5.3247136532579495e-02 0.0000000000000000e+00  1.2213003673710223e+00 2.6283327640376955e-02 0.0000000000000000e+00  1.0649022526348524e+00 1.7151467728732874e-03 0.0000000000000000e+00  1.4564238405894223e+00 4.1373702496767112e-02 0.0000000000000000e+00  1.3621941881267154e+00 -6.1161298573477553e-02 0.0000000000000000e+00  1.6756385698105447e+00 4.1568156888590647e-02 0.0000000000000000e+00  -4.1488608178043417e-02 7.2467294771599439e-02 0.0000000000000000e+00  1.2722316091127965e+00 -3.2831841897727432e-01 0.0000000000000000e+00  1.2463371556563116e+00 4.7337203487644536e-01 0.0000000000000000e+00  1.1959559325441089e+00 -7.0884426757655355e-02 0.0000000000000000e+00  9.7004016383607727e-01 3.5285361733313619e-02 0.0000000000000000e+00  9.4973100665379795e-01 -1.0450611059384904e-01 0.0000000000000000e+00  1.0013353780202157e+00 4.0861467079584234e-02 0.0000000000000000e+00  1.3802824096369950e+00 -2.1315910982435876e-01 0.0000000000000000e+00  1.8864528374994876e+00 2.4758566172128946e-01 0.0000000000000000e+00  8.4350028049695036e-01 1.3923385520658685e-01 0.0000000000000000e+00  1.0661091723758349e+00 -2.4125222189892992e-01 0.0000000000000000e+00  9.6022476471596729e-01 -1.5581199620848879e-01 0.0000000000000000e+00  -3.4325790312215021e-01 1.2851736320646640e-01 0.0000000000000000e+00  -1.8988713146594063e-01 8.3977992836474433e-02 0.0000000000000000e+00  1.0251089058565805e+00 8.6982169839877556e-05 0.0000000000000000e+00  9.8970448961303803e-01 -3.9222301937019852e-05 0.0000000000000000e+00  -9.7946315073305978e-02 2.8929074265829816e-02 0.0000000000000000e+00  1.5438370113508988e+00 -3.5388173107630344e-02 0.0000000000000000e+00  1.0920710592973060e+00 -6.0609982871592682e-01 0.0000000000000000e+00  1.0058632351543728e+00 6.0414018525984520e-04 0.0000000000000000e+00  1.2133515347237260e+00 -5.5012924077341646e-03 0.0000000000000000e+00  9.1389169206411536e-01 -1.8652613357708736e-04 0.0000000000000000e+00  7.7725082045056140e-02 -4.6548209056541147e-02 0.0000000000000000e+00  1.1063770934829678e+00 -1.3948573434921349e-01 0.0000000000000000e+00  9.6957079231427623e-01 -2.7609299989923845e-02 0.0000000000000000e+00  1.0815968790387096e+00 1.1232573416467224e+00 0.0000000000000000e+00  1.6403326963510989e+00 9.5083007702590583e-01 0.0000000000000000e+00  4.4641443096234873e-01 6.3722170258772248e-01 0.0000000000000000e+00  3.0608674476804082e-01 -2.6356383904697872e-01 0.0000000000000000e+00  8.5989789464222344e-01 5.9533508968002996e-02 0.0000000000000000e+00  -3.5946182505976816e-02 4.8388818434782342e-02 0.0000000000000000e+00  1.3655598713497554e+00 3.6547388325821323e-01 0.0000000000000000e+00  -6.5190906560071218e-02 -9.6185691678985483e-02 0.0000000000000000e+00  -4.8071644108297375e-02 -1.2253685683878543e-01 0.0000000000000000e+00  1.2353368778976466e+00 -1.0016041784793822e-04 0.0000000000000000e+00  1.2320547812241958e+00 -2.3878112014643911e-04 0.0000000000000000e+00  7.5055123384646427e-01 -1.0007098420013782e+00 0.0000000000000000e+00  9.5729755354531088e-01 -1.1244600328662309e-01 0.0000000000000000e+00  6.1046849167694128e-01 5.0950177182634691e-02 0.0000000000000000e+00  5.5517925542284718e-01 4.8112737714843826e-02 0.0000000000000000e+00  6.8607175424643418e-01 -6.6394915324877957e-02 0.0000000000000000e+00  1.3881468665019143e+00 -4.7637216714678227e-01 0.0000000000000000e+00  6.6787082621682003e-01 -5.4549502974067188e-01 0.0000000000000000e+00  4.2329426255890051e-01 2.9827524835354870e-02 0.0000000000000000e+00  8.5982919240524791e-01 2.5916742719988249e-03 0.0000000000000000e+00  -1.0678170355515902e-01 -1.0104761883464190e-01 0.0000000000000000e+00  9.8497310566155505e-01 -4.9786385470077269e-04 0.0000000000000000e+00  1.4442714940872805e+00 8.0092879564504241e-02 0.0000000000000000e+00  8.6083611873488897e-01 -1.9956135746880845e-02 0.0000000000000000e+00  1.7289791564616013e+00 1.5890342059353857e-01 0.0000000000000000e+00  1.4588574407527515e+00 -1.8749790275994622e-02 0.0000000000000000e+00  1.5634890027897848e+00 5.8531374377233170e-01 0.0000000000000000e+00  1.1667635242973402e+00 1.2370622418869062e-02 0.0000000000000000e+00  1.2634148537027576e+00 1.7964068857650894e-02 0.0000000000000000e+00  1.2049707941046475e+00 4.8272721626342420e-02 0.0000000000000000e+00  1.2982583098427831e+00 2.2100048561689140e-02 0.0000000000000000e+00  1.2171585574260975e+00 2.7634821898266704e-02 0.0000000000000000e+00  1.2066792089217850e+00 -8.6349218245357733e-03 0.0000000000000000e+00  1.1711726304408512e+00 -6.7033925607973333e-02 0.0000000000000000e+00  1.6958471056792142e+00 9.2174997989354468e-02 0.0000000000000000e+00  1.7002946082859414e+00 5.8227678284747675e-02 0.0000000000000000e+00  1.2726200763222839e+00 8.0551233631001598e-02 0.0000000000000000e+00  1.6943443989767790e+00 7.294253742105