<?xml version="1.0"?>
<VTKFile type="UnstructuredGrid"  version="0.1"  >
<UnstructuredGrid>
<Piece  NumberOfPoints="3852" NumberOfCells="7360">
<Points>
<DataArray  type="Float64"  NumberOfComponents="3"  format="ascii">0 0 0  0 0.41 0  2.2 0.41 0  2.2 0 0  0.2 0.15 0  0.15 0.2 0  0.2 0.25 0  0.25 0.2 0  0.2097545161007899 0.1509607359798352 0  0.219134171618224 0.153806023374423 0  0.2277785116509268 0.1584265193848371 0  0.2353553390592504 0.1646446609405956 0  0.2415734806150793 0.1722214883489481 0  0.2461939766255306 0.1808658283816641 0  0.249039264020151 0.1902454838991403 0  0.2490392640201666 0.2097545161007811 0  0.2461939766255869 0.2191341716182 0  0.2415734806151802 0.2277785116509009 0  0.2353553390594108 0.235355339059244 0  0.2277785116510524 0.2415734806150789 0  0.2191341716182962 0.2461939766255471 0  0.209754516100834 0.2490392640201561 0  0.1902454838992189 0.2490392640201666 0  0.1808658283818 0.2461939766255869 0  0.1722214883490991 0.2415734806151802 0  0.164644660940756 0.2353553390594108 0  0.1584265193849211 0.2277785116510524 0  0.1538060233744529 0.2191341716182962 0  0.150960735979844 0.209754516100834 0  0.1509607359798352 0.1902454838992101 0  0.153806023374423 0.180865828381776 0  0.1584265193848371 0.1722214883490732 0  0.1646446609405956 0.1646446609407496 0  0.1722214883489481 0.1584265193849207 0  0.1808658283816641 0.1538060233744694 0  0.1902454838991403 0.150960735979849 0  0.09999999999980318 0 0  0.1999999999996354 0 0  0.2999999999994593 0 0  0.3999999999991452 0 0  0.4999999999988309 0 0  0.599999999998495 0 0  0.6999999999982023 0 0  0.7999999999979096 0 0  0.8999999999975735 0 0  0.9999999999972848 0 0  1.099999999997053 0 0  1.199999999997309 0 0  1.299999999997566 0 0  1.399999999997821 0 0  1.49999999999809 0 0  1.599999999998377 0 0  1.69999999999859 0 0  1.799999999998877 0 0  1.899999999999145 0 0  1.999999999999386 0 0  2.099999999999693 0 0  2.2 0.08199999999981657 0  2.2 0.1639999999995688 0  2.2 0.2459999999995603 0  2.2 0.327999999999785 0  2.100000000000048 0.41 0  2.000000000000269 0.41 0  1.900000000000422 0.41 0  1.800000000000679 0.41 0  1.700000000000931 0.41 0  1.600000000001326 0.41 0  1.500000000001665 0.41 0  1.400000000002032 0.41 0  1.300000000002395 0.41 0  1.200000000002644 0.41 0  1.100000000002865 0.41 0  1.000000000002617 0.41 0  0.900000000002368 0.41 0  0.8000000000021192 0.41 0  0.7000000000018587 0.41 0  0.6000000000015786 0.41 0  0.5000000000013736 0.41 0  0.4000000000010933 0.41 0  0.3000000000008329 0.41 0  0.2000000000005997 0.41 0  0.1000000000003003 0.41 0  0 0.3280000000001975 0  0 0.2460000000004372 0  0 0.1640000000004437 0  0 0.08200000000021695 0  0.439039350479032 0.2235433210862024 0  0.3557293424662716 0.1539377961885917 0  0.3450132387946972 0.2399891502764809 0  0.2900756359792848 0.08507884665974728 0  0.2884413411145515 0.3059878288466324 0  0.2102195502178943 0.3385267178242456 0  0.137328909169326 0.3152847369018352 0  0.08490385663776813 0.2628976192695439 0  0.08063302347471875 0.188368977740952 0  0.1005937615311739 0.1162460982751979 0  0.1621860847198582 0.08598327887900903 0  0.3012864586130264 0.1926027915888804 0  1.999140000000448 0.2049999999995642 0  0.2742354912953259 0.1572259708446958 0  0.2871471664627305 0.2264358039321654 0  0.6542851578645765 0.1981889790488746 0  0.2651366296338276 0.2534562504463119 0  0.2371819217149928 0.0977949043027586 0  1.651678197071202 0.2145186615851206 0  1.349674714201118 0.2086119645070391 0  0.9627539291831038 0.2056711800839285 0  0.2360880502985623 0.2733043913425156 0  1.159884231859056 0.2050429640239795 0  0.2502927927237266 0.1358797630898622 0  0.2080582834123368 0.2835355213895352 0  0.1805439632603489 0.278338480667804 0  0.1486243506827335 0.2626014098227327 0  0.1266658889266303 0.2392753516137401 0  0.1179814841582247 0.2069380844236527 0  0.1225167704961566 0.1764957192948648 0  0.1357996569043286 0.1472158045151807 0  0.1619764829264572 0.126298308975886 0  0.1935640279204225 0.116654032325456 0  1.82457000000085 0.2346439024393236 0  0.8027657238591595 0.149277802568535 0  1.498563450727992 0.2632867809910664 0  0.2770405925201826 0.1924926016722167 0  0.470924801584011 0.09138612536042019 0  0.550693598792917 0.2898604497866635 0  0.381089831438127 0.3238078833671811 0  2.074516462495042 0.125705772324225 0  2.083599037046577 0.2769549245607841 0  0.2692296340100125 0.2210592970306522 0  0.7614733075682367 0.2839235561638241 0  1.536698221979284 0.1258192462655419 0  1.231809489345021 0.1282542717942667 0  1.054759157670174 0.1242749934189342 0  1.754535566851005 0.1223197024158991 0  1.90452621597739 0.1324728094649104 0  0.2672409321155211 0.178737994598723 0  1.254401531996246 0.2902808614622134 0  1.04350934597445 0.2986664252663559 0  0.0749710792305778 0.3208721925318313 0  0.5425289614095572 0.165152457827861 0  0.1663208394680799 0.2644065126118989 0  0.1471335176887868 0.2433864007787126 0  0.1345556779484054 0.219852318055334 0  0.131940483167677 0.1932967226753857 0  0.1941574795820069 0.2685534232066453 0  0.2226696214021025 0.1252682734732412 0  0.2193882214552426 0.2661718674478616 0  0.1396865053227576 0.1677617654469802 0  0.8749487631478475 0.295170577255529 0  1.424301820545763 0.1157348858866879 0  1.918515045506933 0.2902236143624367 0  1.744876807925144 0.306628844405037 0  0.2443979144126529 0.254353837216211 0  0.2569054246570621 0.2306780201523878 0  0.2632507216716993 0.2062296523407826 0  0.4609453431326088 0.3138128990490959 0  0.3578015395476809 0.08253318517696946 0  0.2529777826635333 0.155582948480283 0  0.1580369715200277 0.1487041474358234 0  0.652872088668587 0.3101079993636056 0  0.297147332491062 0.2558065812325378 0  0.6188247313471635 0.1101603945467571 0  0.8951149554961688 0.1123812542864208 0  1.592749166085722 0.2985190085719691 0  1.40420309431358 0.2992155383468256 0  1.649189110727275 0.1000387439201274 0  0.2301663900864273 0.1432830242131801 0  0.2064839406544439 0.1345771465164309 0  0.2548204572493643 0.1702022465417566 0  0.1606700828011604 0.2481621709908606 0  0.2605987457303776 0.1928909671966518 0  0.1826942838524941 0.2594610608897559 0  0.1456438338561037 0.2290651013631561 0  0.1387681034994896 0.2058679665896095 0  1.140902260384949 0.3081952438204152 0  2.123402621966431 0.2039515281261525 0  0.7272188829630218 0.1047469619375249 0  0.2060868819369127 0.2616331638469837 0  0.246763614216289 0.2411610007697902 0  0.1405961691450822 0.1819800466423126 0  1.149638048863541 0.08264492713269313 0  0.1809997740285721 0.1365020267363126 0  1.993198408221569 0.09755938404998035 0  0.2287111352430851 0.2547015941619741 0  0.3818716699056283 0.2060398770290832 0  0.39147508084147 0.2656155699545688 0  0.151201080877373 0.1608659990301362 0  0.0542521118046473 0.1382221876243976 0  0.06190301158313444 0.0685934933767465 0  1.317316039400266 0.1015983144534349 0  0.2176417279723976 0.1415790407114221 0  0.2401571300978209 0.1529210337009423 0  0.2618092962776011 0.3566662607419938 0  0.1941527094396574 0.1377969918002053 0  0.9590486261329707 0.3255353063371385 0  0.1708201090411339 0.1447474051814825 0  1.837592370686806 0.3302992722413595 0  0.3197015570210796 0.1212159119695666 0  0.4155281956943757 0.1409543952531078 0  0.0549491513262805 0.2307535706287103 0  0.1668210562270142 0.3605647861782867 0  0.2854688902460447 0.2093700809023571 0  2.013251581901814 0.3292746985146142 0  0.1192191106244758 0.2809901915857802 0  0.2487958366614321 0.04556523514103697 0  0.09061021186838321 0.2240174335271237 0  1.737143840576958 0.20912817770623 0  0.04515017012776967 0.2784708690411318 0  0.5347554646753627 0.08988970780599832 0  0.977104673723579 0.08241628541188413 0  0.336509991617897 0.2888965225844298 0  0.2569238041969055 0.2173711314485607 0  1.906541186051535 0.2125389476829634 0  0.1762338839607841 0.3102437166134606 0  1.449268841077636 0.201011295143529 0  0.8555371485878378 0.2099663446585434 0  1.837208236203613 0.07556229833764837 0  1.264402545318887 0.1992523923163096 0  1.068181074047183 0.2155119107017876 0  0.3158931250274742 0.3421721218291775 0  0.2731958384900449 0.2373435058667565 0  0.09875906484220501 0.1533097574901186 0  0.7355755433976705 0.2066339904079041 0  1.567440499207928 0.2049999999995983 0  1.329829828222916 0.3295825481537897 0  0.8214190147401245 0.07894167681990104 0  1.525459989258997 0.3394220200696043 0  0.1990897327079506 0.06300531675246424 0  0.244701762210989 0.3062404318132603 0  0.1033853772622983 0.3551443431224104 0  0.1178236825374896 0.07148041782551597 0  0.1558198999929474 0.04409380269139784 0  0.3389178979413869 0.198678920661321 0  0.310790717645908 0.2196004930752872 0  2.125022007676643 0.3402049371791425 0  2.130028889485561 0.06535501282233655 0  0.4821161335597635 0.1626909543876269 0  0.2838678108956019 0.1254276466262967 0  0.5062815929260498 0.2376271077316994 0  1.663059277092996 0.3422301118688678 0  1.82292665764828 0.1574809263836269 0  2.052538557905295 0.05717536030732174 0  0.3078251537889645 0.16056368457456 0  0.8108267070172145 0.3390047366820738 0  1.487254632568403 0.0703866281621833 0  0.155004430757041 0.2369517702015699 0  0.1725545045705267 0.2519594403466565 0  0.1445581653510352 0.2167994984574706 0  0.1420710285613199 0.1942747855116325 0  1.461861739291679 0.3471998553985149 0  0.2372128969196007 0.2453440460936858 0  0.1943665918892754 0.2580518465884657 0  0.2452139232912363 0.1629124725160763 0  0.2555786751481889 0.1825885041235872 0  2.14640473333793 0.2790222779730848 0  2.145589594789407 0.1282024626544199 0  0.1486651579751984 0.1726583296292201 0  0.550000000001476 0.3603327897285098 0  0.0505668771231032 0.3660023622363767 0  1.049999999997169 0.05217028468202135 0  1.244771793631775 0.05744029386223062 0  0.1356759337238615 0.1094447816941579 0  0.5872326411628903 0.2223148728195226 0  0.2168458206248643 0.2558159203714847 0  1.749999999998732 0.05166028789524129 0  0.2855257256666041 0.1763246086558152 0  1.92
[...]
<PointData  Vectors="f_22"> 
<DataArray  type="Float64"  Name="f_22"  NumberOfComponents="3" format="ascii">0.0000000000000000e+00 0.0000000000000000e+00 0.0000000000000000e+00  0.0000000000000000e+00 0.0000000000000000e+00 0.0000000000000000e+00  0.0000000000000000e+00 0.0000000000000000e+00 0.0000000000000000e+00  0.0000000000000000e+00 0.0000000000000000e+00 0.0000000000000000e+00  0.0000000000000000e+00 0.0000000000000000e+00 0.0000000000000000e+00  0.0000000000000000e+00 0.0000000000000000e+00 0.0000000000000000e+00  0.0000000000000000e+00 0.0000000000000000e+00 0.0000000000000000e+00  0.0000000000000000e+00 0.0000000000000000e+00 0.0000000000000000e+00  0.0000000000000000e+00 0.0000000000000000e+00 0.0000000000000000e+00  0.0000000000000000e+00 0.0000000000000000e+00 0.0000000000000000e+00  0.0000000000000000e+00 0.0000000000000000e+00 0.0000000000000000e+00  0.0000000000000000e+00 0.0000000000000000e+00 0.0000000000000000e+00  0.0000000000000000e+00 0.0000000000000000e+00 0.0000000000000000e+00  0.0000000000000000e+00 0.0000000000000000e+00 0.0000000000000000e+00  0.0000000000000000e+00 0.0000000000000000e+00 0.0000000000000000e+00  0.0000000000000000e+00 0.0000000000000000e+00 0.0000000000000000e+00  0.0000000000000000e+00 0.0000000000000000e+00 0.0000000000000000e+00  0.0000000000000000e+00 0.0000000000000000e+00 0.0000000000000000e+00  0.0000000000000000e+00 0.0000000000000000e+00 0.0000000000000000e+00  0.0000000000000000e+00 0.0000000000000000e+00 0.0000000000000000e+00  0.0000000000000000e+00 0.0000000000000000e+00 0.0000000000000000e+00  0.0000000000000000e+00 0.0000000000000000e+00 0.0000000000000000e+00  0.0000000000000000e+00 0.0000000000000000e+00 0.0000000000000000e+00  0.0000000000000000e+00 0.0000000000000000e+00 0.0000000000000000e+00  0.0000000000000000e+00 0.0000000000000000e+00 0.0000000000000000e+00  0.0000000000000000e+00 0.0000000000000000e+00 0.0000000000000000e+00  0.0000000000000000e+00 0.0000000000000000e+00 0.0000000000000000e+00  0.0000000000000000e+00 0.0000000000000000e+00 0.0000000000000000e+00  0.0000000000000000e+00 0.0000000000000000e+00 0.0000000000000000e+00  0.0000000000000000e+00 0.0000000000000000e+00 0.0000000000000000e+00  0.0000000000000000e+00 0.0000000000000000e+00 0.0000000000000000e+00  0.0000000000000000e+00 0.0000000000000000e+00 0.0000000000000000e+00  0.0000000000000000e+00 0.0000000000000000e+00 0.0000000000000000e+00  0.0000000000000000e+00 0.0000000000000000e+00 0.0000000000000000e+00  0.0000000000000000e+00 0.0000000000000000e+00 0.0000000000000000e+00  0.0000000000000000e+00 0.0000000000000000e+00 0.0000000000000000e+00  0.0000000000000000e+00 0.0000000000000000e+00 0.0000000000000000e+00  0.0000000000000000e+00 0.0000000000000000e+00 0.0000000000000000e+00  0.0000000000000000e+00 0.0000000000000000e+00 0.0000000000000000e+00  0.0000000000000000e+00 0.0000000000000000e+00 0.0000000000000000e+00  0.0000000000000000e+00 0.0000000000000000e+00 0.0000000000000000e+00  0.0000000000000000e+00 0.0000000000000000e+00 0.0000000000000000e+00  0.0000000000000000e+00 0.0000000000000000e+00 0.0000000000000000e+00  0.0000000000000000e+00 0.0000000000000000e+00 0.0000000000000000e+00  0.0000000000000000e+00 0.0000000000000000e+00 0.0000000000000000e+00  0.0000000000000000e+00 0.0000000000000000e+00 0.0000000000000000e+00  0.0000000000000000e+00 0.0000000000000000e+00 0.0000000000000000e+00  0.0000000000000000e+00 0.0000000000000000e+00 0.0000000000000000e+00  0.0000000000000000e+00 0.0000000000000000e+00 0.0000000000000000e+00  0.0000000000000000e+00 0.0000000000000000e+00 0.0000000000000000e+00  0.0000000000000000e+00 0.0000000000000000e+00 0.0000000000000000e+00  0.0000000000000000e+00 0.0000000000000000e+00 0.0000000000000000e+00  0.0000000000000000e+00 0.0000000000000000e+00 0.0000000000000000e+00  0.0000000000000000e+00 0.0000000000000000e+00 0.0000000000000000e+00  0.0000000000000000e+00 0.0000000000000000e+00 0.0000000000000000e+00  0.0000000000000000e+00 0.0000000000000000e+00 0.0000000000000000e+00  0.0000000000000000e+00 0.0000000000000000e+00 0.0000000000000000e+00  1.0800164839595079e+00 1.5940868486053555e-03 0.0000000000000000e+00  1.2506888265313603e+00 1.3994076243734280e-02 0.0000000000000000e+00  1.3001308489283672e+00 -1.2579306998016290e-03 0.0000000000000000e+00  1.0956714875067766e+00 -1.3468283199144341e-03 0.0000000000000000e+00  0.0000000000000000e+00 0.0000000000000000e+00 0.0000000000000000e+00  0.0000000000000000e+00 0.0000000000000000e+00 0.0000000000000000e+00  0.0000000000000000e+00 0.0000000000000000e+00 0.0000000000000000e+00  0.0000000000000000e+00 0.0000000000000000e+00 0.0000000000000000e+00  0.0000000000000000e+00 0.0000000000000000e+00 0.0000000000000000e+00  0.0000000000000000e+00 0.0000000000000000e+00 0.0000000000000000e+00  0.0000000000000000e+00 0.0000000000000000e+00 0.0000000000000000e+00  0.0000000000000000e+00 0.0000000000000000e+00 0.0000000000000000e+00  0.0000000000000000e+00 0.0000000000000000e+00 0.0000000000000000e+00  0.0000000000000000e+00 0.0000000000000000e+00 0.0000000000000000e+00  0.0000000000000000e+00 0.0000000000000000e+00 0.0000000000000000e+00  0.0000000000000000e+00 0.0000000000000000e+00 0.0000000000000000e+00  0.0000000000000000e+00 0.0000000000000000e+00 0.0000000000000000e+00  0.0000000000000000e+00 0.0000000000000000e+00 0.0000000000000000e+00  0.0000000000000000e+00 0.0000000000000000e+00 0.0000000000000000e+00  0.0000000000000000e+00 0.0000000000000000e+00 0.0000000000000000e+00  0.0000000000000000e+00 0.0000000000000000e+00 0.0000000000000000e+00  0.0000000000000000e+00 0.0000000000000000e+00 0.0000000000000000e+00  0.0000000000000000e+00 0.0000000000000000e+00 0.0000000000000000e+00  0.0000000000000000e+00 0.0000000000000000e+00 0.0000000000000000e+00  0.0000000000000000e+00 0.0000000000000000e+00 0.0000000000000000e+00  9.6000004507273184e-01 0.0000000000000000e+00 0.0000000000000000e+00  1.4400000676104197e+00 0.0000000000000000e+00 0.0000000000000000e+00  1.4400000676129983e+00 0.0000000000000000e+00 0.0000000000000000e+00  9.6000004507637116e-01 0.0000000000000000e+00 0.0000000000000000e+00  5.3836952678977790e-01 1.0180128531436480e-01 0.0000000000000000e+00  5.5307173962006295e-01 3.4800903513132253e-01 0.0000000000000000e+00  1.4723682928579004e-01 2.2248815141479281e-01 0.0000000000000000e+00  1.8272409562517866e+00 1.8956318348094765e-02 0.0000000000000000e+00  1.9298848325203857e+00 1.1181916227783939e-01 0.0000000000000000e+00  1.4463563783793227e+00 2.1807786577932003e-01 0.0000000000000000e+00  1.3042575836777690e+00 3.4490600103452285e-01 0.0000000000000000e+00  1.3276029371550107e+00 2.4417471393919626e-01 0.0000000000000000e+00  1.3076975184096775e+00 -9.0693141169169031e-02 0.0000000000000000e+00  1.2721384957339488e+00 -3.3615527628965575e-01 0.0000000000000000e+00  1.4245912099941198e+00 -3.7102402545235869e-01 0.0000000000000000e+00  -2.3225599326888260e-01 -3.9382350297497620e-02 0.0000000000000000e+00  1.2390100465381659e+00 -6.4979448713584909e-02 0.0000000000000000e+00  1.2291728867082014e-01 -1.3231295169566562e-01 0.0000000000000000e+00  -1.1551898209399428e-01 4.1655268136928159e-02 0.0000000000000000e+00  1.2131736568435822e+00 4.2749700751072134e-01 0.0000000000000000e+00  2.1476864984201649e-01 1.7854128899058290e-02 0.0000000000000000e+00  1.9000783528250444e+00 -1.9463411965534427e-01 0.0000000000000000e+00  1.3813422597067777e+00 6.4710005023000630e-02 0.0000000000000000e+00  1.7315549792530978e+00 -7.6193445428011181e-02 0.0000000000000000e+00  1.5038546412922027e+00 -3.4627767648419594e-01 0.0000000000000000e+00  1.6942933962486595e+00 2.0896419757611143e-01 0.0000000000000000e+00  1.7510130662154479e+00 5.8203699600071535e-01 0.0000000000000000e+00  1.0436446271183493e+00 -4.9560377392431659e-02 0.0000000000000000e+00  1.9812069263594414e+00 4.4528286823790564e-01 0.0000000000000000e+00  1.8473868477643709e+00 6.4189164521975950e-01 0.0000000000000000e+00  1.4794245191681170e+00 7.6240595549231893e-01 0.0000000000000000e+00  1.1389139252144165e+00 5.4174370053026621e-01 0.0000000000000000e+00  9.3841549202158359e-01 8.1980056103516941e-02 0.0000000000000000e+00  9.9142554570708141e-01 -4.2136632156600684e-01 0.0000000000000000e+00  1.3063734311518240e+00 -7.1727473096286876e-01 0.0000000000000000e+00  1.6743846858615106e+00 -7.2358021031065956e-01 0.0000000000000000e+00  1.9382161394841126e+00 -5.1377801120664179e-01 0.0000000000000000e+00  1.3330485276304214e+00 8.7483604791663366e-02 0.0000000000000000e+00  9.1814638045419583e-01 3.2356221813078034e-01 0.0000000000000000e+00  1.2949934088283179e+00 1.3880543161587752e-01 0.0000000000000000e+00  -1.3233786065780986e-01 -1.1171135467555522e-01 0.0000000000000000e+00  1.4981743674030608e+00 -3.7469889925304284e-02 0.0000000000000000e+00  1.3553348267270566e+00 -3.6477418757162633e-01 0.0000000000000000e+00  1.8727746091837132e+00 -1.1628306674298608e-01 0.0000000000000000e+00  1.2658927039985242e+00 1.0986765393731763e-02 0.0000000000000000e+00  1.2612165228185697e+00 2.3249824236899129e-04 0.0000000000000000e+00  -8.6954416101924031e-02 1.9763443482487590e-02 0.0000000000000000e+00  1.1342089946295089e+00 3.5544637714325333e-01 0.0000000000000000e+00  1.4399513109686071e+00 -3.2009896007183354e-02 0.0000000000000000e+00  1.1205145264169727e+00 -7.6403716560387261e-02 0.0000000000000000e+00  1.6442157172824357e+00 2.0663295320673458e-01 0.0000000000000000e+00  1.2505416409589221e+00 -2.1743363485489327e-02 0.0000000000000000e+00  1.1744653097734652e+00 -4.1894311377596499e-02 0.0000000000000000e+00  -7.7817697898702978e-02 -1.8174242858103415e-01 0.0000000000000000e+00  1.4730105284451025e+00 -6.6360921379442064e-02 0.0000000000000000e+00  9.0436706507126785e-01 -1.0258401039765440e-01 0.0000000000000000e+00  1.0743645387154741e+00 1.6197480620511764e-01 0.0000000000000000e+00  3.9865471506281064e-01 -6.9911250385978907e-01 0.0000000000000000e+00  1.7267700189256947e+00 8.5070355204350467e-01 0.0000000000000000e+00  1.2212808544460751e+00 9.2701138790638948e-01 0.0000000000000000e+00  7.5392830753372264e-01 4.8901140139095289e-01 0.0000000000000000e+00  6.4836478970232037e-01 -2.2211585248633095e-01 0.0000000000000000e+00  1.9916756260081887e+00 5.9736637019760053e-01 0.0000000000000000e+00  1.9831668431096128e+00 -2.7566556532165570e-01 0.0000000000000000e+00  1.4521317794419510e+00 2.1133556908587733e-01 0.0000000000000000e+00  9.7814272640414612e-01 -8.2245376849776708e-01 0.0000000000000000e+00  1.6143627773983220e+00 -4.5070641528206745e-01 0.0000000000000000e+00  1.1995095156642943e+00 -1.3649898259715409e-01 0.0000000000000000e+00  1.2714015072456852e+00 1.5263516856203930e-02 0.0000000000000000e+00  1.2094977394903927e+00 7.1295741517495584e-02 0.0000000000000000e+00  2.4279228186067406e-01 3.1294934562434464e-02 0.0000000000000000e+00  -5.9941061313781435e-02 3.8605173725398623e-02 0.0000000000000000e+00  -5.5346543595725238e-02 -6.5146836644782644e-02 0.0000000000000000e+00  1.7935134106875712e+00 -4.0812586299132253e-01 0.0000000000000000e+00  1.6844269128211176e+00 1.8725605845110252e-01 0.0000000000000000e+00  3.2242351528466107e-02 -1.1447946879914352e-01 0.0000000000000000e+00  1.5370542029301908e+00 -1.0593920476779917e+00 0.0000000000000000e+00  1.0356366478120462e+00 1.9523591284816585e-01 0.0000000000000000e+00  3.3785062976541641e-01 1.7382422251356066e-02 0.0000000000000000e+00  1.9465372786951032e+00 4.3666914850030580e-01 0.0000000000000000e+00  7.5614338330562703e-01 -2.4357409404895825e-01 0.0000000000000000e+00  1.2081664815436759e+00 7.7537280646784706e-03 0.0000000000000000e+00  1.0988362306368378e+00 -2.7025592147654404e-02 0.0000000000000000e+00  1.1347917352637131e+00 -4.7584021909583579e-02 0.0000000000000000e+00  5.0083332637157729e-01 -2.5827721492386033e-02 0.0000000000000000e+00  1.7833076688729752e+00 -3.3362740482678416e-01 0.0000000000000000e+00  -6.6311111112657722e-02 -1.7470716506288644e-01 0.0000000000000000e+00  1.4929080174410083e+00 1.1010705689924747e+00 0.0000000000000000e+00  -5.2432490838780842e-02 -1.4405215467106652e-01 0.0000000000000000e+00  1.8580024089425753e+00 7.6436942921275053e-01 0.0000000000000000e+00  8.3051943346908519e-01 9.0085617073371183e-01 0.0000000000000000e+00  4.2775580892210313e-01 1.7220541638689407e-01 0.0000000000000000e+00  9.6687716412959679e-01 1.0627789957262244e-01 0.0000000000000000e+00  1.2578223954627785e+00 3.4959169608857060e-02 0.0000000000000000e+00  1.1888637317980713e+00 1.3831416512756559e-01 0.0000000000000000e+00  1.3532127347382219e+00 2.4657630598660479e-01 0.0000000000000000e+00  -5.3301772084180951e-02 4.6183968045629624e-02 0.0000000000000000e+00  6.0344282049952158e-01 -6.5647181219468609e-01 0.0000000000000000e+00  8.5406493606315204e-01 3.2281368779659586e-03 0.0000000000000000e+00  1.9799695539139643e+00 -8.0283965762887977e-01 0.0000000000000000e+00  1.1784788736605158e+00 -8.3244882726018869e-03 0.0000000000000000e+00  2.7688037174002172e-01 2.6995694597362938e-02 0.0000000000000000e+00  -3.5312624877800691e-01 5.5414593541394097e-01 0.0000000000000000e+00  1.2215987356752811e+00 4.9166214556001675e-02 0.0000000000000000e+00  1.1832988531949475e+00 -1.1102057550113076e+00 0.0000000000000000e+00  1.3216982782675493e+00 -1.4607982401834035e-01 0.0000000000000000e+00  8.8668077688010982e-01 -1.1749892439950749e-01 0.0000000000000000e+00  1.0492008545627005e+00 6.5643353058204207e-02 0.0000000000000000e+00  7.8449570408711677e-01 -5.3138933150313060e-02 0.0000000000000000e+00  2.2522711814295018e-02 -6.0320701832373043e-02 0.0000000000000000e+00  1.3930971650743225e+00 8.0951337037546520e-02 0.0000000000000000e+00  1.8527777325031409e+00 -5.1549880094115597e-01 0.0000000000000000e+00  8.8435088375013415e-01 7.9340480331229229e-02 0.0000000000000000e+00  1.8047788387391885e+00 -1.0130236935322172e+00 0.0000000000000000e+00  1.0566941530697394e+00 2.4228304018239777e-02 0.0000000000000000e+00  1.8323444624747141e+00 1.7688878554271908e-01 0.0000000000000000e+00  9.0912194988913242e-01 4.2231497212811925e-01 0.0000000000000000e+00  1.4130702648369535e+00 7.4033185824341388e-02 0.0000000000000000e+00  1.0188919620718291e+00 1.6136329502722041e-01 0.0000000000000000e+00  -1.7138012888005805e-01 -1.3680355267868462e-02 0.0000000000000000e+00  1.0988406212832007e+00 -6.8702430623561747e-03 0.0000000000000000e+00  1.3540073761642133e+00 4.2323704646305027e-01 0.0000000000000000e+00  1.3171382401032583e+00 -4.7914641265448490e-02 0.0000000000000000e+00  1.2684744217234676e+00 1.4642985090494082e-01 0.0000000000000000e+00  1.3696301462444718e+00 9.5537043537148661e-02 0.0000000000000000e+00  1.3022381089441120e+00 1.0668445356765738e-01 0.0000000000000000e+00  1.6958436698153512e+00 -4.0698553191634144e-02 0.0000000000000000e+00  1.2155313261927261e+00 4.2806211312109842e-02 0.0000000000000000e+00  1.8435497087932113e+00 2.9457697566810739e-02 0.0000000000000000e+00  -2.8790449955625859e-02 -9.8869671984778678e-03 0.0000000000000000e+00  1.3240336356783489e+00 -6.7196577381487585e-02 0.0000000000000000e+00  1.5635836115433583e+00 4.0521160130117573e-01 0.0000000000000000e+00  1.6923974028207902e+00 -1.6290155891224711e-01 0.0000000000000000e+00  1.4704392169364773e+00 -2.7913080662438700e-01 0.0000000000000000e+00  1.0032732060577720e+00 -1.0004142723100498e-02 0.0000000000000000e+00  1.4559260060206631e+00 -1.3135715705061630e-02 0.0000000000000000e+00  1.4760014620724349e+00 -1.7493449308170886e-01 0.0000000000000000e+00  1.6418268114961219e+00 2.0054918220199322e-02 0.0000000000000000e+00  -5.0926374031221876e-02 4.1788368062322154e-02 0.0000000000000000e+00  1.2761153078031635e+00 -3.3637532372924034e-01 0.0000000000000000e+00  1.3845314049042299e+00 6.5662778510793551e-01 0.0000000000000000e+00  1.4008794683537589e+00 -7.7214295752488088e-02 0.0000000000000000e+00  9.1227925932186826e-01 -4.7817609459650301e-02 0.0000000000000000e+00  8.2954257892102856e-01 -5.5128428410362147e-02 0.0000000000000000e+00  8.4973955790730527e-01 1.6028918383433080e-02 0.0000000000000000e+00  1.3803251594016956e+00 -1.9962406514470751e-01 0.0000000000000000e+00  1.8763596376396103e+00 2.2881487198996517e-01 0.0000000000000000e+00  8.3899645281134083e-01 1.3500036474795585e-01 0.0000000000000000e+00  1.0696270150217877e+00 -2.4144060014346685e-01 0.0000000000000000e+00  9.6164635926323772e-01 -1.5209030681201097e-01 0.0000000000000000e+00  -3.6619119109015252e-01 2.0676457618669597e-01 0.0000000000000000e+00  -2.0289711051897591e-01 8.6971905163854321e-02 0.0000000000000000e+00  1.0055861076243580e+00 1.1349791852470900e-04 0.0000000000000000e+00  9.6038700061276550e-01 2.2502938356039168e-03 0.0000000000000000e+00  -5.8552898755809581e-02 -6.5852003001815845e-02 0.0000000000000000e+00  1.6746091396846581e+00 8.9315412083304686e-03 0.0000000000000000e+00  1.4035918923914730e+00 -9.0131346319193628e-01 0.0000000000000000e+00  8.5300804733475633e-01 4.3711084749959488e-02 0.0000000000000000e+00  1.2269352800961184e+00 6.3489763670367863e-02 0.0000000000000000e+00  8.8301957027702183e-01 3.5446336886419761e-04 0.0000000000000000e+00  1.6891554147828128e-01 -4.4648273651372916e-02 0.0000000000000000e+00  1.2657106563138001e+00 -1.8921248434824584e-01 0.0000000000000000e+00  8.4470706730905232e-01 -3.7646087400731214e-02 0.0000000000000000e+00  1.0770730454776836e+00 1.1149299642639772e+00 0.0000000000000000e+00  1.6395917422737207e+00 9.4710895672072104e-01 0.0000000000000000e+00  4.4350011747427892e-01 6.2448159888477461e-01 0.0000000000000000e+00  3.0801373512479446e-01 -2.7843473799635493e-01 0.0000000000000000e+00  7.1808293123602940e-01 1.6839520195979299e-02 0.0000000000000000e+00  -3.0885846820304302e-02 4.3343730117608954e-02 0.0000000000000000e+00  1.3757225483972031e+00 3.6451300568011236e-01 0.0000000000000000e+00  -6.5248901395672229e-02 -1.0742205568818357e-01 0.0000000000000000e+00  -5.4698941470858062e-02 -1.6532976705366273e-01 0.0000000000000000e+00  1.2786113489445792e+00 4.7711134708231231e-03 0.0000000000000000e+00  1.2450330539971914e+00 1.0937120357329478e-02 0.0000000000000000e+00  7.5892423521618135e-01 -1.0150692038231379e+00 0.0000000000000000e+00  8.0471377556153134e-01 -6.2824257030314662e-02 0.0000000000000000e+00  6.0919271393376073e-01 4.8851234265662367e-02 0.0000000000000000e+00  6.8997117576855660e-01 4.9573500975412389e-02 0.0000000000000000e+00  6.6885535493741333e-01 3.3586238143725453e-02 0.0000000000000000e+00  1.3959879947176412e+00 -4.7763156254475780e-01 0.0000000000000000e+00  8.5656954880352543e-01 -6.1603506339603631e-01 0.0000000000000000e+00  4.3751396728222808e-01 2.7385672204266326e-02 0.0000000000000000e+00  7.7229296260086855e-01 -1.0023003260346603e-02 0.0000000000000000e+00  -9.2326152291087940e-02 -1.3852966908195918e-01 0.0000000000000000e+00  9.4152125257458830e-01 -1.1295854323604713e-02 0.0000000000000000e+00  1.2932823929201711e+00 6.9534177326824126e-02 0.0000000000000000e+00  7.0691720313526984e-01 -3.0208781016124196e-02 0.0000000000000000e+00  1.7500369691272879e+00 1.3683709640132216e-01 0.0000000000000000e+00  1.4590910504376176e+00 -2.3353828343277053e-02 0.0000000000000000e+00  1.5592339239909152e+00 5.7636747604119176e-01 0.0000000000000000e+00  1.2516869296506516e+00 5.5617505753958150e-02 0.0000000000000000e+00  1.4477240930687938e+00 2.0709656160410855e-02 0.0000000000000000e+00  1.4162331420413257e+00 1.3344417222548005e-01 0.0000000000000000e+00  1.5744778762166773e+00 7.2129692132661946e-02 0.0000000000000000e+00  1.3518326271912111e+00 5.9284105458025970e-03 0.0000000000000000e+00  1.1947107125559426e+00 -6.2310684613636577e-02 0.0000000000000000e+00  9.7747739271495437e-01 -5.6236641987838711e-02 0.0000000000000000e+00  1.4015885358225255e+00 2.1140883789138604e-01 0.0000000000000000e+00  1.3911673658824195e+00 4.3925226690663406e-02 0.0000000000000000e+00  1.2069496136148776e+00 1.5900433645259260e-01 0.0000000000000000e+00  1.9077372537123569e+00 4.641633250649415