<?xml version="1.0"?>
<VTKFile type="UnstructuredGrid"  version="0.1"  >
<UnstructuredGrid>
<Piece  NumberOfPoints="3852" NumberOfCells="7360">
<Points>
<DataArray  type="Float64"  NumberOfComponents="3"  format="ascii">0 0 0  0 0.41 0  2.2 0.41 0  2.2 0 0  0.2 0.15 0  0.15 0.2 0  0.2 0.25 0  0.25 0.2 0  0.2097545161007899 0.1509607359798352 0  0.219134171618224 0.153806023374423 0  0.2277785116509268 0.1584265193848371 0  0.2353553390592504 0.1646446609405956 0  0.2415734806150793 0.1722214883489481 0  0.2461939766255306 0.1808658283816641 0  0.249039264020151 0.1902454838991403 0  0.2490392640201666 0.2097545161007811 0  0.2461939766255869 0.2191341716182 0  0.2415734806151802 0.2277785116509009 0  0.2353553390594108 0.235355339059244 0  0.2277785116510524 0.2415734806150789 0  0.2191341716182962 0.2461939766255471 0  0.209754516100834 0.2490392640201561 0  0.1902454838992189 0.2490392640201666 0  0.1808658283818 0.2461939766255869 0  0.1722214883490991 0.2415734806151802 0  0.164644660940756 0.2353553390594108 0  0.1584265193849211 0.2277785116510524 0  0.1538060233744529 0.2191341716182962 0  0.150960735979844 0.209754516100834 0  0.1509607359798352 0.1902454838992101 0  0.153806023374423 0.180865828381776 0  0.1584265193848371 0.1722214883490732 0  0.1646446609405956 0.1646446609407496 0  0.1722214883489481 0.1584265193849207 0  0.1808658283816641 0.1538060233744694 0  0.1902454838991403 0.150960735979849 0  0.09999999999980318 0 0  0.1999999999996354 0 0  0.2999999999994593 0 0  0.3999999999991452 0 0  0.4999999999988309 0 0  0.599999999998495 0 0  0.6999999999982023 0 0  0.7999999999979096 0 0  0.8999999999975735 0 0  0.9999999999972848 0 0  1.099999999997053 0 0  1.199999999997309 0 0  1.299999999997566 0 0  1.399999999997821 0 0  1.49999999999809 0 0  1.599999999998377 0 0  1.69999999999859 0 0  1.799999999998877 0 0  1.899999999999145 0 0  1.999999999999386 0 0  2.099999999999693 0 0  2.2 0.08199999999981657 0  2.2 0.1639999999995688 0  2.2 0.2459999999995603 0  2.2 0.327999999999785 0  2.100000000000048 0.41 0  2.000000000000269 0.41 0  1.900000000000422 0.41 0  1.800000000000679 0.41 0  1.700000000000931 0.41 0  1.600000000001326 0.41 0  1.500000000001665 0.41 0  1.400000000002032 0.41 0  1.300000000002395 0.41 0  1.200000000002644 0.41 0  1.100000000002865 0.41 0  1.000000000002617 0.41 0  0.900000000002368 0.41 0  0.8000000000021192 0.41 0  0.7000000000018587 0.41 0  0.6000000000015786 0.41 0  0.5000000000013736 0.41 0  0.4000000000010933 0.41 0  0.3000000000008329 0.41 0  0.2000000000005997 0.41 0  0.1000000000003003 0.41 0  0 0.3280000000001975 0  0 0.2460000000004372 0  0 0.1640000000004437 0  0 0.08200000000021695 0  0.439039350479032 0.2235433210862024 0  0.3557293424662716 0.1539377961885917 0  0.3450132387946972 0.2399891502764809 0  0.2900756359792848 0.08507884665974728 0  0.2884413411145515 0.3059878288466324 0  0.2102195502178943 0.3385267178242456 0  0.137328909169326 0.3152847369018352 0  0.08490385663776813 0.2628976192695439 0  0.08063302347471875 0.188368977740952 0  0.1005937615311739 0.1162460982751979 0  0.1621860847198582 0.08598327887900903 0  0.3012864586130264 0.1926027915888804 0  1.999140000000448 0.2049999999995642 0  0.2742354912953259 0.1572259708446958 0  0.2871471664627305 0.2264358039321654 0  0.6542851578645765 0.1981889790488746 0  0.2651366296338276 0.2534562504463119 0  0.2371819217149928 0.0977949043027586 0  1.651678197071202 0.2145186615851206 0  1.349674714201118 0.2086119645070391 0  0.9627539291831038 0.2056711800839285 0  0.2360880502985623 0.2733043913425156 0  1.159884231859056 0.2050429640239795 0  0.2502927927237266 0.1358797630898622 0  0.2080582834123368 0.2835355213895352 0  0.1805439632603489 0.278338480667804 0  0.1486243506827335 0.2626014098227327 0  0.1266658889266303 0.2392753516137401 0  0.1179814841582247 0.2069380844236527 0  0.1225167704961566 0.1764957192948648 0  0.1357996569043286 0.1472158045151807 0  0.1619764829264572 0.126298308975886 0  0.1935640279204225 0.116654032325456 0  1.82457000000085 0.2346439024393236 0  0.8027657238591595 0.149277802568535 0  1.498563450727992 0.2632867809910664 0  0.2770405925201826 0.1924926016722167 0  0.470924801584011 0.09138612536042019 0  0.550693598792917 0.2898604497866635 0  0.381089831438127 0.3238078833671811 0  2.074516462495042 0.125705772324225 0  2.083599037046577 0.2769549245607841 0  0.2692296340100125 0.2210592970306522 0  0.7614733075682367 0.2839235561638241 0  1.536698221979284 0.1258192462655419 0  1.231809489345021 0.1282542717942667 0  1.054759157670174 0.1242749934189342 0  1.754535566851005 0.1223197024158991 0  1.90452621597739 0.1324728094649104 0  0.2672409321155211 0.178737994598723 0  1.254401531996246 0.2902808614622134 0  1.04350934597445 0.2986664252663559 0  0.0749710792305778 0.3208721925318313 0  0.5425289614095572 0.165152457827861 0  0.1663208394680799 0.2644065126118989 0  0.1471335176887868 0.2433864007787126 0  0.1345556779484054 0.219852318055334 0  0.131940483167677 0.1932967226753857 0  0.1941574795820069 0.2685534232066453 0  0.2226696214021025 0.1252682734732412 0  0.2193882214552426 0.2661718674478616 0  0.1396865053227576 0.1677617654469802 0  0.8749487631478475 0.295170577255529 0  1.424301820545763 0.1157348858866879 0  1.918515045506933 0.2902236143624367 0  1.744876807925144 0.306628844405037 0  0.2443979144126529 0.254353837216211 0  0.2569054246570621 0.2306780201523878 0  0.2632507216716993 0.2062296523407826 0  0.4609453431326088 0.3138128990490959 0  0.3578015395476809 0.08253318517696946 0  0.2529777826635333 0.155582948480283 0  0.1580369715200277 0.1487041474358234 0  0.652872088668587 0.3101079993636056 0  0.297147332491062 0.2558065812325378 0  0.6188247313471635 0.1101603945467571 0  0.8951149554961688 0.1123812542864208 0  1.592749166085722 0.2985190085719691 0  1.40420309431358 0.2992155383468256 0  1.649189110727275 0.1000387439201274 0  0.2301663900864273 0.1432830242131801 0  0.2064839406544439 0.1345771465164309 0  0.2548204572493643 0.1702022465417566 0  0.1606700828011604 0.2481621709908606 0  0.2605987457303776 0.1928909671966518 0  0.1826942838524941 0.2594610608897559 0  0.1456438338561037 0.2290651013631561 0  0.1387681034994896 0.2058679665896095 0  1.140902260384949 0.3081952438204152 0  2.123402621966431 0.2039515281261525 0  0.7272188829630218 0.1047469619375249 0  0.2060868819369127 0.2616331638469837 0  0.246763614216289 0.2411610007697902 0  0.1405961691450822 0.1819800466423126 0  1.149638048863541 0.08264492713269313 0  0.1809997740285721 0.1365020267363126 0  1.993198408221569 0.09755938404998035 0  0.2287111352430851 0.2547015941619741 0  0.3818716699056283 0.2060398770290832 0  0.39147508084147 0.2656155699545688 0  0.151201080877373 0.1608659990301362 0  0.0542521118046473 0.1382221876243976 0  0.06190301158313444 0.0685934933767465 0  1.317316039400266 0.1015983144534349 0  0.2176417279723976 0.1415790407114221 0  0.2401571300978209 0.1529210337009423 0  0.2618092962776011 0.3566662607419938 0  0.1941527094396574 0.1377969918002053 0  0.9590486261329707 0.3255353063371385 0  0.1708201090411339 0.1447474051814825 0  1.837592370686806 0.3302992722413595 0  0.3197015570210796 0.1212159119695666 0  0.4155281956943757 0.1409543952531078 0  0.0549491513262805 0.2307535706287103 0  0.1668210562270142 0.3605647861782867 0  0.2854688902460447 0.2093700809023571 0  2.013251581901814 0.3292746985146142 0  0.1192191106244758 0.2809901915857802 0  0.2487958366614321 0.04556523514103697 0  0.09061021186838321 0.2240174335271237 0  1.737143840576958 0.20912817770623 0  0.04515017012776967 0.2784708690411318 0  0.5347554646753627 0.08988970780599832 0  0.977104673723579 0.08241628541188413 0  0.336509991617897 0.2888965225844298 0  0.2569238041969055 0.2173711314485607 0  1.906541186051535 0.2125389476829634 0  0.1762338839607841 0.3102437166134606 0  1.449268841077636 0.201011295143529 0  0.8555371485878378 0.2099663446585434 0  1.837208236203613 0.07556229833764837 0  1.264402545318887 0.1992523923163096 0  1.068181074047183 0.2155119107017876 0  0.3158931250274742 0.3421721218291775 0  0.2731958384900449 0.2373435058667565 0  0.09875906484220501 0.1533097574901186 0  0.7355755433976705 0.2066339904079041 0  1.567440499207928 0.2049999999995983 0  1.329829828222916 0.3295825481537897 0  0.8214190147401245 0.07894167681990104 0  1.525459989258997 0.3394220200696043 0  0.1990897327079506 0.06300531675246424 0  0.244701762210989 0.3062404318132603 0  0.1033853772622983 0.3551443431224104 0  0.1178236825374896 0.07148041782551597 0  0.1558198999929474 0.04409380269139784 0  0.3389178979413869 0.198678920661321 0  0.310790717645908 0.2196004930752872 0  2.125022007676643 0.3402049371791425 0  2.130028889485561 0.06535501282233655 0  0.4821161335597635 0.1626909543876269 0  0.2838678108956019 0.1254276466262967 0  0.5062815929260498 0.2376271077316994 0  1.663059277092996 0.3422301118688678 0  1.82292665764828 0.1574809263836269 0  2.052538557905295 0.05717536030732174 0  0.3078251537889645 0.16056368457456 0  0.8108267070172145 0.3390047366820738 0  1.487254632568403 0.0703866281621833 0  0.155004430757041 0.2369517702015699 0  0.1725545045705267 0.2519594403466565 0  0.1445581653510352 0.2167994984574706 0  0.1420710285613199 0.1942747855116325 0  1.461861739291679 0.3471998553985149 0  0.2372128969196007 0.2453440460936858 0  0.1943665918892754 0.2580518465884657 0  0.2452139232912363 0.1629124725160763 0  0.2555786751481889 0.1825885041235872 0  2.14640473333793 0.2790222779730848 0  2.145589594789407 0.1282024626544199 0  0.1486651579751984 0.1726583296292201 0  0.550000000001476 0.3603327897285098 0  0.0505668771231032 0.3660023622363767 0  1.049999999997169 0.05217028468202135 0  1.244771793631775 0.05744029386223062 0  0.1356759337238615 0.1094447816941579 0  0.5872326411628903 0.2223148728195226 0  0.2168458206248643 0.2558159203714847 0  1.749999999998732 0.05166028789524129 0  0.2855257256666041 0.1763246086558152 0  1.92
[...]
<PointData  Vectors="f_22"> 
<DataArray  type="Float64"  Name="f_22"  NumberOfComponents="3" format="ascii">0.0000000000000000e+00 0.0000000000000000e+00 0.0000000000000000e+00  0.0000000000000000e+00 0.0000000000000000e+00 0.0000000000000000e+00  0.0000000000000000e+00 0.0000000000000000e+00 0.0000000000000000e+00  0.0000000000000000e+00 0.0000000000000000e+00 0.0000000000000000e+00  0.0000000000000000e+00 0.0000000000000000e+00 0.0000000000000000e+00  0.0000000000000000e+00 0.0000000000000000e+00 0.0000000000000000e+00  0.0000000000000000e+00 0.0000000000000000e+00 0.0000000000000000e+00  0.0000000000000000e+00 0.0000000000000000e+00 0.0000000000000000e+00  0.0000000000000000e+00 0.0000000000000000e+00 0.0000000000000000e+00  0.0000000000000000e+00 0.0000000000000000e+00 0.0000000000000000e+00  0.0000000000000000e+00 0.0000000000000000e+00 0.0000000000000000e+00  0.0000000000000000e+00 0.0000000000000000e+00 0.0000000000000000e+00  0.0000000000000000e+00 0.0000000000000000e+00 0.0000000000000000e+00  0.0000000000000000e+00 0.0000000000000000e+00 0.0000000000000000e+00  0.0000000000000000e+00 0.0000000000000000e+00 0.0000000000000000e+00  0.0000000000000000e+00 0.0000000000000000e+00 0.0000000000000000e+00  0.0000000000000000e+00 0.0000000000000000e+00 0.0000000000000000e+00  0.0000000000000000e+00 0.0000000000000000e+00 0.0000000000000000e+00  0.0000000000000000e+00 0.0000000000000000e+00 0.0000000000000000e+00  0.0000000000000000e+00 0.0000000000000000e+00 0.0000000000000000e+00  0.0000000000000000e+00 0.0000000000000000e+00 0.0000000000000000e+00  0.0000000000000000e+00 0.0000000000000000e+00 0.0000000000000000e+00  0.0000000000000000e+00 0.0000000000000000e+00 0.0000000000000000e+00  0.0000000000000000e+00 0.0000000000000000e+00 0.0000000000000000e+00  0.0000000000000000e+00 0.0000000000000000e+00 0.0000000000000000e+00  0.0000000000000000e+00 0.0000000000000000e+00 0.0000000000000000e+00  0.0000000000000000e+00 0.0000000000000000e+00 0.0000000000000000e+00  0.0000000000000000e+00 0.0000000000000000e+00 0.0000000000000000e+00  0.0000000000000000e+00 0.0000000000000000e+00 0.0000000000000000e+00  0.0000000000000000e+00 0.0000000000000000e+00 0.0000000000000000e+00  0.0000000000000000e+00 0.0000000000000000e+00 0.0000000000000000e+00  0.0000000000000000e+00 0.0000000000000000e+00 0.0000000000000000e+00  0.0000000000000000e+00 0.0000000000000000e+00 0.0000000000000000e+00  0.0000000000000000e+00 0.0000000000000000e+00 0.0000000000000000e+00  0.0000000000000000e+00 0.0000000000000000e+00 0.0000000000000000e+00  0.0000000000000000e+00 0.0000000000000000e+00 0.0000000000000000e+00  0.0000000000000000e+00 0.0000000000000000e+00 0.0000000000000000e+00  0.0000000000000000e+00 0.0000000000000000e+00 0.0000000000000000e+00  0.0000000000000000e+00 0.0000000000000000e+00 0.0000000000000000e+00  0.0000000000000000e+00 0.0000000000000000e+00 0.0000000000000000e+00  0.0000000000000000e+00 0.0000000000000000e+00 0.0000000000000000e+00  0.0000000000000000e+00 0.0000000000000000e+00 0.0000000000000000e+00  0.0000000000000000e+00 0.0000000000000000e+00 0.0000000000000000e+00  0.0000000000000000e+00 0.0000000000000000e+00 0.0000000000000000e+00  0.0000000000000000e+00 0.0000000000000000e+00 0.0000000000000000e+00  0.0000000000000000e+00 0.0000000000000000e+00 0.0000000000000000e+00  0.0000000000000000e+00 0.0000000000000000e+00 0.0000000000000000e+00  0.0000000000000000e+00 0.0000000000000000e+00 0.0000000000000000e+00  0.0000000000000000e+00 0.0000000000000000e+00 0.0000000000000000e+00  0.0000000000000000e+00 0.0000000000000000e+00 0.0000000000000000e+00  0.0000000000000000e+00 0.0000000000000000e+00 0.0000000000000000e+00  0.0000000000000000e+00 0.0000000000000000e+00 0.0000000000000000e+00  0.0000000000000000e+00 0.0000000000000000e+00 0.0000000000000000e+00  0.0000000000000000e+00 0.0000000000000000e+00 0.0000000000000000e+00  0.0000000000000000e+00 0.0000000000000000e+00 0.0000000000000000e+00  0.0000000000000000e+00 0.0000000000000000e+00 0.0000000000000000e+00  0.0000000000000000e+00 0.0000000000000000e+00 0.0000000000000000e+00  1.1361972453384614e+00 3.4002925593889116e-03 0.0000000000000000e+00  1.5388179159331750e+00 -1.7721627462201550e-01 0.0000000000000000e+00  1.3262643830837575e+00 -4.5126419630882271e-02 0.0000000000000000e+00  8.0177492011600537e-01 4.9452766745337162e-02 0.0000000000000000e+00  0.0000000000000000e+00 0.0000000000000000e+00 0.0000000000000000e+00  0.0000000000000000e+00 0.0000000000000000e+00 0.0000000000000000e+00  0.0000000000000000e+00 0.0000000000000000e+00 0.0000000000000000e+00  0.0000000000000000e+00 0.0000000000000000e+00 0.0000000000000000e+00  0.0000000000000000e+00 0.0000000000000000e+00 0.0000000000000000e+00  0.0000000000000000e+00 0.0000000000000000e+00 0.0000000000000000e+00  0.0000000000000000e+00 0.0000000000000000e+00 0.0000000000000000e+00  0.0000000000000000e+00 0.0000000000000000e+00 0.0000000000000000e+00  0.0000000000000000e+00 0.0000000000000000e+00 0.0000000000000000e+00  0.0000000000000000e+00 0.0000000000000000e+00 0.0000000000000000e+00  0.0000000000000000e+00 0.0000000000000000e+00 0.0000000000000000e+00  0.0000000000000000e+00 0.0000000000000000e+00 0.0000000000000000e+00  0.0000000000000000e+00 0.0000000000000000e+00 0.0000000000000000e+00  0.0000000000000000e+00 0.0000000000000000e+00 0.0000000000000000e+00  0.0000000000000000e+00 0.0000000000000000e+00 0.0000000000000000e+00  0.0000000000000000e+00 0.0000000000000000e+00 0.0000000000000000e+00  0.0000000000000000e+00 0.0000000000000000e+00 0.0000000000000000e+00  0.0000000000000000e+00 0.0000000000000000e+00 0.0000000000000000e+00  0.0000000000000000e+00 0.0000000000000000e+00 0.0000000000000000e+00  0.0000000000000000e+00 0.0000000000000000e+00 0.0000000000000000e+00  0.0000000000000000e+00 0.0000000000000000e+00 0.0000000000000000e+00  9.6000005120356202e-01 0.0000000000000000e+00 0.0000000000000000e+00  1.4400000768066654e+00 0.0000000000000000e+00 0.0000000000000000e+00  1.4400000768092440e+00 0.0000000000000000e+00 0.0000000000000000e+00  9.6000005120720144e-01 0.0000000000000000e+00 0.0000000000000000e+00  6.3603112292030972e-01 3.9825095774104002e-01 0.0000000000000000e+00  1.2990510041523025e+00 6.5461186831520368e-01 0.0000000000000000e+00  -1.2967340819804435e-01 1.3700070035961062e-01 0.0000000000000000e+00  1.8130201109560475e+00 1.1054780835800092e-01 0.0000000000000000e+00  1.8481887945603239e+00 4.7729557472599153e-02 0.0000000000000000e+00  1.4078461797947599e+00 1.8662268618816322e-01 0.0000000000000000e+00  1.2913231799326834e+00 3.2001867013984914e-01 0.0000000000000000e+00  1.3237587364495302e+00 2.2436837868234280e-01 0.0000000000000000e+00  1.3104888778623729e+00 -1.1193155468004845e-01 0.0000000000000000e+00  1.2817219096708139e+00 -3.4984706176943137e-01 0.0000000000000000e+00  1.4427335083812451e+00 -3.7152817587986708e-01 0.0000000000000000e+00  -1.6778859305052610e-01 -3.6769344320040293e-01 0.0000000000000000e+00  1.5856826029680895e+00 3.8373089209721205e-02 0.0000000000000000e+00  2.6678945797522091e-01 -2.3617314110220938e-01 0.0000000000000000e+00  -2.3556651330840994e-01 -1.9261567012064001e-01 0.0000000000000000e+00  1.3536158693619689e+00 -2.2466073575674730e-01 0.0000000000000000e+00  2.7977152758582624e-01 -6.8608079241650993e-02 0.0000000000000000e+00  1.9253795366965047e+00 -1.4576056048249209e-01 0.0000000000000000e+00  1.5971725410512456e+00 -2.2870670206637456e-01 0.0000000000000000e+00  1.5641229359685727e+00 -4.6511858054982530e-01 0.0000000000000000e+00  1.4903254856542869e+00 -6.4269160705120787e-01 0.0000000000000000e+00  1.7570797973147732e+00 1.6134056116282688e-01 0.0000000000000000e+00  1.5685743356316375e+00 5.3156242438727419e-01 0.0000000000000000e+00  1.1979030321274262e+00 -2.4679181314915651e-02 0.0000000000000000e+00  1.9717205783476752e+00 3.9933033607574592e-01 0.0000000000000000e+00  1.8367290704299131e+00 6.0667909677324949e-01 0.0000000000000000e+00  1.4664438595865550e+00 7.2971424000770935e-01 0.0000000000000000e+00  1.1297698779914123e+00 5.0561641127553780e-01 0.0000000000000000e+00  9.3828453192806749e-01 4.2849301134402759e-02 0.0000000000000000e+00  1.0030699371892049e+00 -4.5991449836539650e-01 0.0000000000000000e+00  1.3301919254560775e+00 -7.4752094528754720e-01 0.0000000000000000e+00  1.7100401602764221e+00 -7.3830816743424499e-01 0.0000000000000000e+00  1.9821114362201131e+00 -5.0410677104783763e-01 0.0000000000000000e+00  1.4879831725237402e+00 1.2489011959436840e-01 0.0000000000000000e+00  1.1616822324446425e+00 4.2800268887624054e-01 0.0000000000000000e+00  1.3377976598274417e+00 4.0983915390284836e-01 0.0000000000000000e+00  -1.0486214373505090e-01 -4.0811587803814203e-01 0.0000000000000000e+00  1.1466990608006233e+00 -3.5217269338027553e-02 0.0000000000000000e+00  1.3780738557532441e+00 -4.2765107318812623e-01 0.0000000000000000e+00  1.7598447712209124e+00 -9.8709851979733074e-02 0.0000000000000000e+00  1.1561645288674440e+00 -2.4078569142459552e-01 0.0000000000000000e+00  1.4422121678905304e+00 -2.7590198468869648e-01 0.0000000000000000e+00  -1.3408649593680988e-01 -1.9146494588270180e-01 0.0000000000000000e+00  1.2404241950535264e+00 4.4184092132712616e-01 0.0000000000000000e+00  1.1967370388075009e+00 3.8040857920439547e-01 0.0000000000000000e+00  1.0949603858506733e+00 7.4766420073916831e-03 0.0000000000000000e+00  1.4945296230933518e+00 2.6012842564093158e-01 0.0000000000000000e+00  1.2514606145764007e+00 -2.5933719085657425e-01 0.0000000000000000e+00  1.3610630003638295e+00 3.1933550518989912e-01 0.0000000000000000e+00  -1.7069252834748912e-02 -4.0972655605804803e-01 0.0000000000000000e+00  1.4969219626787202e+00 -3.0243830475100786e-01 0.0000000000000000e+00  8.4068381420984140e-01 -1.5462143319181829e-01 0.0000000000000000e+00  1.0708085946121486e+00 1.5101116863877956e-01 0.0000000000000000e+00  9.5139709508556713e-01 -7.0736347165757563e-01 0.0000000000000000e+00  1.7149389038810956e+00 8.1965047804546753e-01 0.0000000000000000e+00  1.2061330507314274e+00 8.9119691640833387e-01 0.0000000000000000e+00  7.4569245892030334e-01 4.4490994179566229e-01 0.0000000000000000e+00  6.5419343331032753e-01 -2.6940054814837455e-01 0.0000000000000000e+00  1.9996173555750880e+00 5.6623366006668940e-01 0.0000000000000000e+00  2.0627387979478806e+00 -2.4555174969557864e-01 0.0000000000000000e+00  1.5285005351860137e+00 1.8402025216540291e-01 0.0000000000000000e+00  1.0002713152167648e+00 -8.6516549114769503e-01 0.0000000000000000e+00  1.5726211623164676e+00 -3.1579358051105572e-01 0.0000000000000000e+00  1.4143629296024745e+00 1.4253596824001838e-01 0.0000000000000000e+00  1.1772235033196581e+00 2.2926532436353006e-01 0.0000000000000000e+00  9.6069315829593838e-01 -1.9933626982076030e-01 0.0000000000000000e+00  3.2689144311746976e-01 1.7239130222613733e-04 0.0000000000000000e+00  -7.1303423365852131e-02 -7.8517595369395787e-02 0.0000000000000000e+00  -5.7491231190595668e-02 -3.1032734314065202e-01 0.0000000000000000e+00  1.7438333413848728e+00 -3.9071481518559137e-01 0.0000000000000000e+00  1.5629521651714677e+00 3.2912552947545581e-01 0.0000000000000000e+00  4.5693981619085416e-02 -1.3290555153908906e-01 0.0000000000000000e+00  1.5760143349542901e+00 -1.0910246316357903e+00 0.0000000000000000e+00  7.5481960685521088e-01 2.9106926212473995e-02 0.0000000000000000e+00  3.2938696875436357e-01 -1.3961138997455644e-01 0.0000000000000000e+00  1.7413711919158588e+00 1.0458593512786928e-01 0.0000000000000000e+00  5.9649114817889282e-01 -4.3987438534924400e-01 0.0000000000000000e+00  1.3141879669945788e+00 6.5521082602532865e-02 0.0000000000000000e+00  9.7987690817243844e-01 -8.9014957000165082e-02 0.0000000000000000e+00  7.8437700586762737e-01 -2.2262876061223055e-01 0.0000000000000000e+00  5.6868192994899258e-01 -2.0118903862818165e-02 0.0000000000000000e+00  1.8673731007482544e+00 -3.2782668268307324e-01 0.0000000000000000e+00  -5.1163386541297894e-02 -2.5883488006254379e-01 0.0000000000000000e+00  1.4781972169415838e+00 1.0725636674865013e+00 0.0000000000000000e+00  -4.5256778691722420e-02 -3.7537331892003017e-01 0.0000000000000000e+00  1.8673788847691952e+00 7.4673366233040284e-01 0.0000000000000000e+00  8.1535491780999425e-01 8.5941411495568931e-01 0.0000000000000000e+00  4.2506583746864440e-01 1.2192155455998055e-01 0.0000000000000000e+00  9.4000878690720657e-01 5.6657768432572631e-01 0.0000000000000000e+00  1.5853955832039517e+00 -3.4732444665899020e-01 0.0000000000000000e+00  1.1407465893621895e+00 2.1159929967946070e-01 0.0000000000000000e+00  1.4200769293282764e+00 2.3310179569778278e-01 0.0000000000000000e+00  -3.4553062641345091e-02 1.0798268097164613e-02 0.0000000000000000e+00  6.1844009022496482e-01 -7.0644744278527238e-01 0.0000000000000000e+00  8.1712165573902196e-01 2.3813532729712461e-01 0.0000000000000000e+00  2.0348126658514802e+00 -8.1464575913239445e-01 0.0000000000000000e+00  8.3806815344507102e-01 -5.0701614373677664e-02 0.0000000000000000e+00  3.4776282263017316e-01 7.7736116079105419e-03 0.0000000000000000e+00  -2.4438053532816492e-01 8.0341141820918527e-01 0.0000000000000000e+00  1.1662873240636462e+00 1.2830290206706293e-01 0.0000000000000000e+00  1.2154876186568579e+00 -1.1514945196060922e+00 0.0000000000000000e+00  1.3241690405225732e+00 -1.5343355031392844e-01 0.0000000000000000e+00  8.8811843089731035e-01 -1.2018761439960207e-01 0.0000000000000000e+00  9.6095707768568128e-01 -4.1156607793032851e-01 0.0000000000000000e+00  8.5599198118227204e-01 -4.9282576632327477e-02 0.0000000000000000e+00  2.6284525959944488e-02 -5.5423451665445773e-02 0.0000000000000000e+00  1.3210213783996398e+00 5.5069697513158530e-02 0.0000000000000000e+00  1.9233084616997453e+00 -5.2089805456429050e-01 0.0000000000000000e+00  8.9668360786554435e-01 -1.8131336901791625e-01 0.0000000000000000e+00  1.8543564996727213e+00 -1.0376560181898085e+00 0.0000000000000000e+00  6.9808275976008183e-01 1.2861207962389257e-01 0.0000000000000000e+00  2.0447001192290828e+00 3.3814933544245807e-01 0.0000000000000000e+00  1.2371487490802000e+00 6.4092984687806664e-01 0.0000000000000000e+00  1.4124835354593408e+00 6.2075976376544835e-02 0.0000000000000000e+00  9.9233464038163832e-01 1.4441748300302468e-01 0.0000000000000000e+00  -2.4780892320947309e-01 -3.0768270971338879e-01 0.0000000000000000e+00  1.0807484980709043e+00 -7.7208554614122779e-02 0.0000000000000000e+00  1.3451228011591065e+00 3.9650660681841687e-01 0.0000000000000000e+00  1.2997303512932625e+00 -1.4862882035555866e-02 0.0000000000000000e+00  1.2667331831045456e+00 1.2077504302367199e-01 0.0000000000000000e+00  1.6436165534761544e+00 -4.3140031502179049e-01 0.0000000000000000e+00  1.3011867918313780e+00 9.9588074732669202e-02 0.0000000000000000e+00  1.3000105011045573e+00 -2.0903498185157826e-01 0.0000000000000000e+00  1.1764325147863948e+00 -1.0929407527918035e-01 0.0000000000000000e+00  1.7552293905064231e+00 -2.8107871809381841e-03 0.0000000000000000e+00  -2.0457906395727671e-02 -1.7322835549447402e-01 0.0000000000000000e+00  1.6099974163444613e+00 3.6611500021687382e-01 0.0000000000000000e+00  1.5441254586760427e+00 3.7199155138936763e-01 0.0000000000000000e+00  1.5344679611164980e+00 1.9435871192076276e-01 0.0000000000000000e+00  1.7222545612029030e+00 2.9502110093497739e-02 0.0000000000000000e+00  9.6781298838178353e-01 1.2530911446327442e-01 0.0000000000000000e+00  1.5787495390461137e+00 -3.0008200320665118e-01 0.0000000000000000e+00  1.6072676832905020e+00 2.5163330935976880e-01 0.0000000000000000e+00  1.5379946579562760e+00 -2.2243869063004783e-03 0.0000000000000000e+00  -1.1610368883846375e-01 -1.2204682355394614e-01 0.0000000000000000e+00  1.2855989411925004e+00 -3.5905660422900360e-01 0.0000000000000000e+00  1.5722460011192205e+00 9.1068562850701651e-01 0.0000000000000000e+00  1.6129519184984111e+00 2.9936042354628484e-01 0.0000000000000000e+00  8.6374140520436848e-01 -2.4998947135721108e-01 0.0000000000000000e+00  5.7140126078341558e-01 1.2508127404078825e-01 0.0000000000000000e+00  8.4768171344336141e-01 1.8613515000928246e-01 0.0000000000000000e+00  1.3900205897549547e+00 -1.8368845847127063e-01 0.0000000000000000e+00  1.8351329570646293e+00 1.7153455877910706e-01 0.0000000000000000e+00  8.3070979750860785e-01 1.2373291578742575e-01 0.0000000000000000e+00  1.0768383163570805e+00 -2.4729774438137653e-01 0.0000000000000000e+00  9.6864897322040788e-01 -1.5080078837185085e-01 0.0000000000000000e+00  -2.8015830624631594e-01 7.3272951382847784e-02 0.0000000000000000e+00  -4.1943869874839185e-01 -2.0057462138441601e-01 0.0000000000000000e+00  7.4718543221833578e-01 -8.2184770232420656e-02 0.0000000000000000e+00  8.5766731252579831e-01 -8.5376935034476492e-02 0.0000000000000000e+00  3.4616119489452452e-01 1.8941905302793197e-01 0.0000000000000000e+00  1.8885140363379596e+00 7.6191723981668000e-02 0.0000000000000000e+00  1.7076352352688251e+00 -9.1501926791301269e-01 0.0000000000000000e+00  8.7887765483970204e-01 -1.3393056528931466e-01 0.0000000000000000e+00  1.5445679195496200e+00 1.0445469308144521e-01 0.0000000000000000e+00  6.0346749350691331e-01 -9.6313894046511181e-02 0.0000000000000000e+00  5.8134946396153730e-01 -1.4780529052095701e-01 0.0000000000000000e+00  1.2146134376837341e+00 -6.6517832568710245e-02 0.0000000000000000e+00  8.3486335742403761e-01 1.7559404361002573e-01 0.0000000000000000e+00  1.0605310511769781e+00 1.0838374983216872e+00 0.0000000000000000e+00  1.6391429875954131e+00 9.3262953027332196e-01 0.0000000000000000e+00  4.3258985876845213e-01 5.7836884354350204e-01 0.0000000000000000e+00  3.1376370473447612e-01 -3.3042587668291296e-01 0.0000000000000000e+00  5.4576312820768025e-01 1.6467477757350529e-01 0.0000000000000000e+00  -1.6110464139075617e-03 3.1102398343216337e-02 0.0000000000000000e+00  1.4234694492039108e+00 3.6028269248857542e-01 0.0000000000000000e+00  -6.7332440921845246e-02 -1.0906804038572539e-01 0.0000000000000000e+00  -5.2718645135176254e-02 -2.9928505862909760e-01 0.0000000000000000e+00  1.2506053848387102e+00 -1.5032470608881052e-01 0.0000000000000000e+00  1.2861040705071909e+00 -2.1775783390149669e-01 0.0000000000000000e+00  7.8318078311288541e-01 -1.0621723518680612e+00 0.0000000000000000e+00  6.5270031424637498e-01 -7.4341415267945257e-02 0.0000000000000000e+00  6.0772036781027561e-01 4.5948039206047273e-02 0.0000000000000000e+00  8.3128422835331128e-01 4.1880517991363997e-02 0.0000000000000000e+00  3.5428330492070209e-01 -5.5185798810223514e-02 0.0000000000000000e+00  1.4147325587699873e+00 -4.9060609411346601e-01 0.0000000000000000e+00  1.3154586376821760e+00 -5.7624892286824680e-01 0.0000000000000000e+00  5.0661619668337288e-01 1.4444381282308034e-02 0.0000000000000000e+00  7.8486534580806666e-01 -4.2371589352762945e-02 0.0000000000000000e+00  7.8760800018772323e-02 -3.9123556957712990e-01 0.0000000000000000e+00  6.1171047126922917e-01 1.0084112872898403e-01 0.0000000000000000e+00  1.0066231080398251e+00 1.0515694355492937e-01 0.0000000000000000e+00  4.8638306543306892e-01 9.0928125934691045e-02 0.0000000000000000e+00  1.7947838892207977e+00 6.1257429998266076e-02 0.0000000000000000e+00  1.4595935415549433e+00 -3.0079124081358419e-02 0.0000000000000000e+00  1.5460615746226405e+00 5.4445973422722505e-01 0.0000000000000000e+00  9.3847161508154608e-01 1.2156825891404641e-01 0.0000000000000000e+00  1.3650170561827588e+00 -3.7141389040653883e-01 0.0000000000000000e+00  1.6294646521824716e+00 -4.3082610341136346e-01 0.0000000000000000e+00  1.3917375341999365e+00 -2.7956375533567784e-01 0.0000000000000000e+00  1.5123756363844167e+00 -3.9131315681398787e-01 0.0000000000000000e+00  1.0165265843939271e+00 -3.1023405367018431e-01 0.0000000000000000e+00  8.3179137194118535e-01 3.5851581438690588e-01 0.0000000000000000e+00  1.2897613021197609e+00 4.5305116122331390e-01 0.0000000000000000e+00  1.4627877792032835e+00 3.8463962771820903e-01 0.0000000000000000e+00  1.1436790535722290e+00 2.1567437222999772e-01 0.0000000000000000e+00  1.5734160502727514e+00 4.838