<?xml version="1.0"?>
<VTKFile type="UnstructuredGrid"  version="0.1"  >
<UnstructuredGrid>
<Piece  NumberOfPoints="3852" NumberOfCells="7360">
<Points>
<DataArray  type="Float64"  NumberOfComponents="3"  format="ascii">0 0 0  0 0.41 0  2.2 0.41 0  2.2 0 0  0.2 0.15 0  0.15 0.2 0  0.2 0.25 0  0.25 0.2 0  0.2097545161007899 0.1509607359798352 0  0.219134171618224 0.153806023374423 0  0.2277785116509268 0.1584265193848371 0  0.2353553390592504 0.1646446609405956 0  0.2415734806150793 0.1722214883489481 0  0.2461939766255306 0.1808658283816641 0  0.249039264020151 0.1902454838991403 0  0.2490392640201666 0.2097545161007811 0  0.2461939766255869 0.2191341716182 0  0.2415734806151802 0.2277785116509009 0  0.2353553390594108 0.235355339059244 0  0.2277785116510524 0.2415734806150789 0  0.2191341716182962 0.2461939766255471 0  0.209754516100834 0.2490392640201561 0  0.1902454838992189 0.2490392640201666 0  0.1808658283818 0.2461939766255869 0  0.1722214883490991 0.2415734806151802 0  0.164644660940756 0.2353553390594108 0  0.1584265193849211 0.2277785116510524 0  0.1538060233744529 0.2191341716182962 0  0.150960735979844 0.209754516100834 0  0.1509607359798352 0.1902454838992101 0  0.153806023374423 0.180865828381776 0  0.1584265193848371 0.1722214883490732 0  0.1646446609405956 0.1646446609407496 0  0.1722214883489481 0.1584265193849207 0  0.1808658283816641 0.1538060233744694 0  0.1902454838991403 0.150960735979849 0  0.09999999999980318 0 0  0.1999999999996354 0 0  0.2999999999994593 0 0  0.3999999999991452 0 0  0.4999999999988309 0 0  0.599999999998495 0 0  0.6999999999982023 0 0  0.7999999999979096 0 0  0.8999999999975735 0 0  0.9999999999972848 0 0  1.099999999997053 0 0  1.199999999997309 0 0  1.299999999997566 0 0  1.399999999997821 0 0  1.49999999999809 0 0  1.599999999998377 0 0  1.69999999999859 0 0  1.799999999998877 0 0  1.899999999999145 0 0  1.999999999999386 0 0  2.099999999999693 0 0  2.2 0.08199999999981657 0  2.2 0.1639999999995688 0  2.2 0.2459999999995603 0  2.2 0.327999999999785 0  2.100000000000048 0.41 0  2.000000000000269 0.41 0  1.900000000000422 0.41 0  1.800000000000679 0.41 0  1.700000000000931 0.41 0  1.600000000001326 0.41 0  1.500000000001665 0.41 0  1.400000000002032 0.41 0  1.300000000002395 0.41 0  1.200000000002644 0.41 0  1.100000000002865 0.41 0  1.000000000002617 0.41 0  0.900000000002368 0.41 0  0.8000000000021192 0.41 0  0.7000000000018587 0.41 0  0.6000000000015786 0.41 0  0.5000000000013736 0.41 0  0.4000000000010933 0.41 0  0.3000000000008329 0.41 0  0.2000000000005997 0.41 0  0.1000000000003003 0.41 0  0 0.3280000000001975 0  0 0.2460000000004372 0  0 0.1640000000004437 0  0 0.08200000000021695 0  0.439039350479032 0.2235433210862024 0  0.3557293424662716 0.1539377961885917 0  0.3450132387946972 0.2399891502764809 0  0.2900756359792848 0.08507884665974728 0  0.2884413411145515 0.3059878288466324 0  0.2102195502178943 0.3385267178242456 0  0.137328909169326 0.3152847369018352 0  0.08490385663776813 0.2628976192695439 0  0.08063302347471875 0.188368977740952 0  0.1005937615311739 0.1162460982751979 0  0.1621860847198582 0.08598327887900903 0  0.3012864586130264 0.1926027915888804 0  1.999140000000448 0.2049999999995642 0  0.2742354912953259 0.1572259708446958 0  0.2871471664627305 0.2264358039321654 0  0.6542851578645765 0.1981889790488746 0  0.2651366296338276 0.2534562504463119 0  0.2371819217149928 0.0977949043027586 0  1.651678197071202 0.2145186615851206 0  1.349674714201118 0.2086119645070391 0  0.9627539291831038 0.2056711800839285 0  0.2360880502985623 0.2733043913425156 0  1.159884231859056 0.2050429640239795 0  0.2502927927237266 0.1358797630898622 0  0.2080582834123368 0.2835355213895352 0  0.1805439632603489 0.278338480667804 0  0.1486243506827335 0.2626014098227327 0  0.1266658889266303 0.2392753516137401 0  0.1179814841582247 0.2069380844236527 0  0.1225167704961566 0.1764957192948648 0  0.1357996569043286 0.1472158045151807 0  0.1619764829264572 0.126298308975886 0  0.1935640279204225 0.116654032325456 0  1.82457000000085 0.2346439024393236 0  0.8027657238591595 0.149277802568535 0  1.498563450727992 0.2632867809910664 0  0.2770405925201826 0.1924926016722167 0  0.470924801584011 0.09138612536042019 0  0.550693598792917 0.2898604497866635 0  0.381089831438127 0.3238078833671811 0  2.074516462495042 0.125705772324225 0  2.083599037046577 0.2769549245607841 0  0.2692296340100125 0.2210592970306522 0  0.7614733075682367 0.2839235561638241 0  1.536698221979284 0.1258192462655419 0  1.231809489345021 0.1282542717942667 0  1.054759157670174 0.1242749934189342 0  1.754535566851005 0.1223197024158991 0  1.90452621597739 0.1324728094649104 0  0.2672409321155211 0.178737994598723 0  1.254401531996246 0.2902808614622134 0  1.04350934597445 0.2986664252663559 0  0.0749710792305778 0.3208721925318313 0  0.5425289614095572 0.165152457827861 0  0.1663208394680799 0.2644065126118989 0  0.1471335176887868 0.2433864007787126 0  0.1345556779484054 0.219852318055334 0  0.131940483167677 0.1932967226753857 0  0.1941574795820069 0.2685534232066453 0  0.2226696214021025 0.1252682734732412 0  0.2193882214552426 0.2661718674478616 0  0.1396865053227576 0.1677617654469802 0  0.8749487631478475 0.295170577255529 0  1.424301820545763 0.1157348858866879 0  1.918515045506933 0.2902236143624367 0  1.744876807925144 0.306628844405037 0  0.2443979144126529 0.254353837216211 0  0.2569054246570621 0.2306780201523878 0  0.2632507216716993 0.2062296523407826 0  0.4609453431326088 0.3138128990490959 0  0.3578015395476809 0.08253318517696946 0  0.2529777826635333 0.155582948480283 0  0.1580369715200277 0.1487041474358234 0  0.652872088668587 0.3101079993636056 0  0.297147332491062 0.2558065812325378 0  0.6188247313471635 0.1101603945467571 0  0.8951149554961688 0.1123812542864208 0  1.592749166085722 0.2985190085719691 0  1.40420309431358 0.2992155383468256 0  1.649189110727275 0.1000387439201274 0  0.2301663900864273 0.1432830242131801 0  0.2064839406544439 0.1345771465164309 0  0.2548204572493643 0.1702022465417566 0  0.1606700828011604 0.2481621709908606 0  0.2605987457303776 0.1928909671966518 0  0.1826942838524941 0.2594610608897559 0  0.1456438338561037 0.2290651013631561 0  0.1387681034994896 0.2058679665896095 0  1.140902260384949 0.3081952438204152 0  2.123402621966431 0.2039515281261525 0  0.7272188829630218 0.1047469619375249 0  0.2060868819369127 0.2616331638469837 0  0.246763614216289 0.2411610007697902 0  0.1405961691450822 0.1819800466423126 0  1.149638048863541 0.08264492713269313 0  0.1809997740285721 0.1365020267363126 0  1.993198408221569 0.09755938404998035 0  0.2287111352430851 0.2547015941619741 0  0.3818716699056283 0.2060398770290832 0  0.39147508084147 0.2656155699545688 0  0.151201080877373 0.1608659990301362 0  0.0542521118046473 0.1382221876243976 0  0.06190301158313444 0.0685934933767465 0  1.317316039400266 0.1015983144534349 0  0.2176417279723976 0.1415790407114221 0  0.2401571300978209 0.1529210337009423 0  0.2618092962776011 0.3566662607419938 0  0.1941527094396574 0.1377969918002053 0  0.9590486261329707 0.3255353063371385 0  0.1708201090411339 0.1447474051814825 0  1.837592370686806 0.3302992722413595 0  0.3197015570210796 0.1212159119695666 0  0.4155281956943757 0.1409543952531078 0  0.0549491513262805 0.2307535706287103 0  0.1668210562270142 0.3605647861782867 0  0.2854688902460447 0.2093700809023571 0  2.013251581901814 0.3292746985146142 0  0.1192191106244758 0.2809901915857802 0  0.2487958366614321 0.04556523514103697 0  0.09061021186838321 0.2240174335271237 0  1.737143840576958 0.20912817770623 0  0.04515017012776967 0.2784708690411318 0  0.5347554646753627 0.08988970780599832 0  0.977104673723579 0.08241628541188413 0  0.336509991617897 0.2888965225844298 0  0.2569238041969055 0.2173711314485607 0  1.906541186051535 0.2125389476829634 0  0.1762338839607841 0.3102437166134606 0  1.449268841077636 0.201011295143529 0  0.8555371485878378 0.2099663446585434 0  1.837208236203613 0.07556229833764837 0  1.264402545318887 0.1992523923163096 0  1.068181074047183 0.2155119107017876 0  0.3158931250274742 0.3421721218291775 0  0.2731958384900449 0.2373435058667565 0  0.09875906484220501 0.1533097574901186 0  0.7355755433976705 0.2066339904079041 0  1.567440499207928 0.2049999999995983 0  1.329829828222916 0.3295825481537897 0  0.8214190147401245 0.07894167681990104 0  1.525459989258997 0.3394220200696043 0  0.1990897327079506 0.06300531675246424 0  0.244701762210989 0.3062404318132603 0  0.1033853772622983 0.3551443431224104 0  0.1178236825374896 0.07148041782551597 0  0.1558198999929474 0.04409380269139784 0  0.3389178979413869 0.198678920661321 0  0.310790717645908 0.2196004930752872 0  2.125022007676643 0.3402049371791425 0  2.130028889485561 0.06535501282233655 0  0.4821161335597635 0.1626909543876269 0  0.2838678108956019 0.1254276466262967 0  0.5062815929260498 0.2376271077316994 0  1.663059277092996 0.3422301118688678 0  1.82292665764828 0.1574809263836269 0  2.052538557905295 0.05717536030732174 0  0.3078251537889645 0.16056368457456 0  0.8108267070172145 0.3390047366820738 0  1.487254632568403 0.0703866281621833 0  0.155004430757041 0.2369517702015699 0  0.1725545045705267 0.2519594403466565 0  0.1445581653510352 0.2167994984574706 0  0.1420710285613199 0.1942747855116325 0  1.461861739291679 0.3471998553985149 0  0.2372128969196007 0.2453440460936858 0  0.1943665918892754 0.2580518465884657 0  0.2452139232912363 0.1629124725160763 0  0.2555786751481889 0.1825885041235872 0  2.14640473333793 0.2790222779730848 0  2.145589594789407 0.1282024626544199 0  0.1486651579751984 0.1726583296292201 0  0.550000000001476 0.3603327897285098 0  0.0505668771231032 0.3660023622363767 0  1.049999999997169 0.05217028468202135 0  1.244771793631775 0.05744029386223062 0  0.1356759337238615 0.1094447816941579 0  0.5872326411628903 0.2223148728195226 0  0.2168458206248643 0.2558159203714847 0  1.749999999998732 0.05166028789524129 0  0.2855257256666041 0.1763246086558152 0  1.92
[...]
<PointData  Vectors="f_22"> 
<DataArray  type="Float64"  Name="f_22"  NumberOfComponents="3" format="ascii">0.0000000000000000e+00 0.0000000000000000e+00 0.0000000000000000e+00  0.0000000000000000e+00 0.0000000000000000e+00 0.0000000000000000e+00  0.0000000000000000e+00 0.0000000000000000e+00 0.0000000000000000e+00  0.0000000000000000e+00 0.0000000000000000e+00 0.0000000000000000e+00  0.0000000000000000e+00 0.0000000000000000e+00 0.0000000000000000e+00  0.0000000000000000e+00 0.0000000000000000e+00 0.0000000000000000e+00  0.0000000000000000e+00 0.0000000000000000e+00 0.0000000000000000e+00  0.0000000000000000e+00 0.0000000000000000e+00 0.0000000000000000e+00  0.0000000000000000e+00 0.0000000000000000e+00 0.0000000000000000e+00  0.0000000000000000e+00 0.0000000000000000e+00 0.0000000000000000e+00  0.0000000000000000e+00 0.0000000000000000e+00 0.0000000000000000e+00  0.0000000000000000e+00 0.0000000000000000e+00 0.0000000000000000e+00  0.0000000000000000e+00 0.0000000000000000e+00 0.0000000000000000e+00  0.0000000000000000e+00 0.0000000000000000e+00 0.0000000000000000e+00  0.0000000000000000e+00 0.0000000000000000e+00 0.0000000000000000e+00  0.0000000000000000e+00 0.0000000000000000e+00 0.0000000000000000e+00  0.0000000000000000e+00 0.0000000000000000e+00 0.0000000000000000e+00  0.0000000000000000e+00 0.0000000000000000e+00 0.0000000000000000e+00  0.0000000000000000e+00 0.0000000000000000e+00 0.0000000000000000e+00  0.0000000000000000e+00 0.0000000000000000e+00 0.0000000000000000e+00  0.0000000000000000e+00 0.0000000000000000e+00 0.0000000000000000e+00  0.0000000000000000e+00 0.0000000000000000e+00 0.0000000000000000e+00  0.0000000000000000e+00 0.0000000000000000e+00 0.0000000000000000e+00  0.0000000000000000e+00 0.0000000000000000e+00 0.0000000000000000e+00  0.0000000000000000e+00 0.0000000000000000e+00 0.0000000000000000e+00  0.0000000000000000e+00 0.0000000000000000e+00 0.0000000000000000e+00  0.0000000000000000e+00 0.0000000000000000e+00 0.0000000000000000e+00  0.0000000000000000e+00 0.0000000000000000e+00 0.0000000000000000e+00  0.0000000000000000e+00 0.0000000000000000e+00 0.0000000000000000e+00  0.0000000000000000e+00 0.0000000000000000e+00 0.0000000000000000e+00  0.0000000000000000e+00 0.0000000000000000e+00 0.0000000000000000e+00  0.0000000000000000e+00 0.0000000000000000e+00 0.0000000000000000e+00  0.0000000000000000e+00 0.0000000000000000e+00 0.0000000000000000e+00  0.0000000000000000e+00 0.0000000000000000e+00 0.0000000000000000e+00  0.0000000000000000e+00 0.0000000000000000e+00 0.0000000000000000e+00  0.0000000000000000e+00 0.0000000000000000e+00 0.0000000000000000e+00  0.0000000000000000e+00 0.0000000000000000e+00 0.0000000000000000e+00  0.0000000000000000e+00 0.0000000000000000e+00 0.0000000000000000e+00  0.0000000000000000e+00 0.0000000000000000e+00 0.0000000000000000e+00  0.0000000000000000e+00 0.0000000000000000e+00 0.0000000000000000e+00  0.0000000000000000e+00 0.0000000000000000e+00 0.0000000000000000e+00  0.0000000000000000e+00 0.0000000000000000e+00 0.0000000000000000e+00  0.0000000000000000e+00 0.0000000000000000e+00 0.0000000000000000e+00  0.0000000000000000e+00 0.0000000000000000e+00 0.0000000000000000e+00  0.0000000000000000e+00 0.0000000000000000e+00 0.0000000000000000e+00  0.0000000000000000e+00 0.0000000000000000e+00 0.0000000000000000e+00  0.0000000000000000e+00 0.0000000000000000e+00 0.0000000000000000e+00  0.0000000000000000e+00 0.0000000000000000e+00 0.0000000000000000e+00  0.0000000000000000e+00 0.0000000000000000e+00 0.0000000000000000e+00  0.0000000000000000e+00 0.0000000000000000e+00 0.0000000000000000e+00  0.0000000000000000e+00 0.0000000000000000e+00 0.0000000000000000e+00  0.0000000000000000e+00 0.0000000000000000e+00 0.0000000000000000e+00  0.0000000000000000e+00 0.0000000000000000e+00 0.0000000000000000e+00  0.0000000000000000e+00 0.0000000000000000e+00 0.0000000000000000e+00  0.0000000000000000e+00 0.0000000000000000e+00 0.0000000000000000e+00  0.0000000000000000e+00 0.0000000000000000e+00 0.0000000000000000e+00  0.0000000000000000e+00 0.0000000000000000e+00 0.0000000000000000e+00  1.1152832541300963e+00 -1.1687745300472053e-04 0.0000000000000000e+00  1.2292276338674941e+00 -1.0569824425899416e-04 0.0000000000000000e+00  1.2291878166327175e+00 3.5352457141011951e-05 0.0000000000000000e+00  1.1155385905136610e+00 2.3548007876664611e-05 0.0000000000000000e+00  0.0000000000000000e+00 0.0000000000000000e+00 0.0000000000000000e+00  0.0000000000000000e+00 0.0000000000000000e+00 0.0000000000000000e+00  0.0000000000000000e+00 0.0000000000000000e+00 0.0000000000000000e+00  0.0000000000000000e+00 0.0000000000000000e+00 0.0000000000000000e+00  0.0000000000000000e+00 0.0000000000000000e+00 0.0000000000000000e+00  0.0000000000000000e+00 0.0000000000000000e+00 0.0000000000000000e+00  0.0000000000000000e+00 0.0000000000000000e+00 0.0000000000000000e+00  0.0000000000000000e+00 0.0000000000000000e+00 0.0000000000000000e+00  0.0000000000000000e+00 0.0000000000000000e+00 0.0000000000000000e+00  0.0000000000000000e+00 0.0000000000000000e+00 0.0000000000000000e+00  0.0000000000000000e+00 0.0000000000000000e+00 0.0000000000000000e+00  0.0000000000000000e+00 0.0000000000000000e+00 0.0000000000000000e+00  0.0000000000000000e+00 0.0000000000000000e+00 0.0000000000000000e+00  0.0000000000000000e+00 0.0000000000000000e+00 0.0000000000000000e+00  0.0000000000000000e+00 0.0000000000000000e+00 0.0000000000000000e+00  0.0000000000000000e+00 0.0000000000000000e+00 0.0000000000000000e+00  0.0000000000000000e+00 0.0000000000000000e+00 0.0000000000000000e+00  0.0000000000000000e+00 0.0000000000000000e+00 0.0000000000000000e+00  0.0000000000000000e+00 0.0000000000000000e+00 0.0000000000000000e+00  0.0000000000000000e+00 0.0000000000000000e+00 0.0000000000000000e+00  0.0000000000000000e+00 0.0000000000000000e+00 0.0000000000000000e+00  9.6000004963729624e-01 0.0000000000000000e+00 0.0000000000000000e+00  1.4400000744572667e+00 0.0000000000000000e+00 0.0000000000000000e+00  1.4400000744598453e+00 0.0000000000000000e+00 0.0000000000000000e+00  9.6000004964093577e-01 0.0000000000000000e+00 0.0000000000000000e+00  -4.0245337950780091e-01 -5.1478628483512777e-02 0.0000000000000000e+00  3.4397907609067979e-01 -1.3353109259991880e-01 0.0000000000000000e+00  2.4659729868806386e-02 -8.2106933770654950e-02 0.0000000000000000e+00  1.8736330396548437e+00 -1.0154463208167230e-01 0.0000000000000000e+00  1.9469025164909610e+00 9.1373636154367582e-02 0.0000000000000000e+00  1.4624437697143204e+00 2.1601549014325488e-01 0.0000000000000000e+00  1.3166412986545108e+00 3.5334780310880881e-01 0.0000000000000000e+00  1.3323045584053850e+00 2.6165771224040985e-01 0.0000000000000000e+00  1.3055957231603128e+00 -7.0563465519021901e-02 0.0000000000000000e+00  1.2626828017231466e+00 -3.2585882024451435e-01 0.0000000000000000e+00  1.4090826524935143e+00 -3.8350953894736678e-01 0.0000000000000000e+00  -2.2346125319668694e-01 -8.6523970806076003e-02 0.0000000000000000e+00  1.2306369355837412e+00 -9.4753106044701902e-05 0.0000000000000000e+00  3.3004851861892288e-02 -9.9352897237568433e-02 0.0000000000000000e+00  -1.1573320209435640e-01 5.5796256511669959e-02 0.0000000000000000e+00  6.7712622769474351e-01 -2.0293073680701024e-01 0.0000000000000000e+00  2.7182319836081570e-01 6.1876816596954695e-02 0.0000000000000000e+00  1.8865701110532505e+00 -2.6478671285845795e-01 0.0000000000000000e+00  1.2268334486023504e+00 -1.3161173637935399e-02 0.0000000000000000e+00  1.1701490953951212e+00 -3.5849177601255879e-03 0.0000000000000000e+00  1.3986172300868538e+00 1.0598590484269708e-01 0.0000000000000000e+00  1.7260558925287819e+00 2.1044294641510577e-01 0.0000000000000000e+00  1.4027201163831631e+00 -6.5267966685038772e-02 0.0000000000000000e+00  8.4346390330593835e-01 -7.2209213690151292e-02 0.0000000000000000e+00  1.9984816065846966e+00 4.4216987160490923e-01 0.0000000000000000e+00  1.8653901732231652e+00 6.4557093058841597e-01 0.0000000000000000e+00  1.4938856539801622e+00 7.7660601122244188e-01 0.0000000000000000e+00  1.1471497058509972e+00 5.6297463012256821e-01 0.0000000000000000e+00  9.3888309763186428e-01 1.0670795736167070e-01 0.0000000000000000e+00  9.8305864598047188e-01 -3.9783719493746733e-01 0.0000000000000000e+00  1.2875977589376344e+00 -7.0173560992774420e-01 0.0000000000000000e+00  1.6439630818559097e+00 -7.2510885683162551e-01 0.0000000000000000e+00  1.9002718907970428e+00 -5.4312964724888713e-01 0.0000000000000000e+00  1.2307295273743672e+00 -1.6255453885079198e-03 0.0000000000000000e+00  1.7101011990117156e+00 1.9584565250416272e-01 0.0000000000000000e+00  1.3059187214969035e+00 -8.9154060682832513e-03 0.0000000000000000e+00  -1.2908655826530852e-01 -6.1503816343108170e-02 0.0000000000000000e+00  1.8000723418256326e+00 3.4364832093095460e-01 0.0000000000000000e+00  1.8929768840862089e+00 -2.5772535772155919e-01 0.0000000000000000e+00  1.7929075602368485e+00 -6.5249529271134310e-02 0.0000000000000000e+00  1.2170069911347698e+00 -1.2113306487308088e-05 0.0000000000000000e+00  1.2217687184898030e+00 1.8962577431342984e-05 0.0000000000000000e+00  -9.3557379002556854e-02 8.5996540655099193e-02 0.0000000000000000e+00  1.4368434291346996e+00 -4.6861613293623559e-02 0.0000000000000000e+00  1.1935784236767548e+00 6.1681979199025940e-04 0.0000000000000000e+00  1.3487839886185704e+00 -4.8812232594988222e-02 0.0000000000000000e+00  1.3559595625411731e+00 -1.0572017404194899e-01 0.0000000000000000e+00  1.2120294913685290e+00 -1.0174185362855058e-03 0.0000000000000000e+00  1.2210647213955066e+00 -2.8934312466415564e-04 0.0000000000000000e+00  -7.4586173763368416e-02 -1.0956363284191624e-01 0.0000000000000000e+00  1.2948750001064449e+00 1.1578118892954825e-01 0.0000000000000000e+00  1.4368078658081753e+00 -6.2903984869568608e-02 0.0000000000000000e+00  1.0790472635301287e+00 1.7246857563751261e-01 0.0000000000000000e+00  8.2935360823477278e-01 4.5276025402174219e-01 0.0000000000000000e+00  1.7446695812780435e+00 8.6034506860116022e-01 0.0000000000000000e+00  1.2347226363579997e+00 9.4595947616014220e-01 0.0000000000000000e+00  7.5984351442663278e-01 5.1404063195368288e-01 0.0000000000000000e+00  6.4460347369917381e-01 -1.9510737761602553e-01 0.0000000000000000e+00  2.0140699675663649e+00 5.9826509789729487e-01 0.0000000000000000e+00  1.8908305401227812e+00 -3.2106097422546548e-01 0.0000000000000000e+00  1.4845834850095816e+00 2.1118554940768236e-01 0.0000000000000000e+00  9.6259791524592997e-01 -7.9864870194000004e-01 0.0000000000000000e+00  1.3935632097116877e+00 6.1888186847470397e-02 0.0000000000000000e+00  1.2311542666871851e+00 -3.7043074842365742e-02 0.0000000000000000e+00  1.2115425870570302e+00 -1.0004151061854011e-04 0.0000000000000000e+00  1.1901499881422131e+00 -2.9412519326984035e-03 0.0000000000000000e+00  2.6378596346404964e-01 4.9562806796419785e-02 0.0000000000000000e+00  -6.7638188066349761e-02 1.1730051426914349e-01 0.0000000000000000e+00  -6.2650796271031525e-02 3.0532505083850230e-02 0.0000000000000000e+00  1.8258086091889345e+00 -9.3076479062001324e-02 0.0000000000000000e+00  1.9177161028701890e+00 4.5140669099018427e-02 0.0000000000000000e+00  -1.5548551396296845e-02 -7.7923615559630260e-02 0.0000000000000000e+00  1.5057191044575748e+00 -1.0442069032623793e+00 0.0000000000000000e+00  1.5459996440924288e+00 -3.3065679550801858e-01 0.0000000000000000e+00  4.2934655879036204e-01 1.7743843970995852e-02 0.0000000000000000e+00  1.4705146136226188e+00 6.3036960419825691e-02 0.0000000000000000e+00  1.3764422525764854e+00 8.4966352512571799e-02 0.0000000000000000e+00  1.2064520482909729e+00 1.3905163281078476e-02 0.0000000000000000e+00  1.2607820737399438e+00 8.8219714277461246e-03 0.0000000000000000e+00  1.1777495699049065e+00 3.1750485515929985e-03 0.0000000000000000e+00  3.9623651986544384e-01 -3.9894972639504984e-02 0.0000000000000000e+00  1.6731262862981184e+00 -3.4927404196710687e-01 0.0000000000000000e+00  -5.8449143335855408e-02 -9.9544333056655609e-02 0.0000000000000000e+00  1.5107297830935931e+00 1.1165346782916286e+00 0.0000000000000000e+00  -4.4437748240646453e-02 -4.1869117131586253e-02 0.0000000000000000e+00  1.8817674396913284e+00 7.7100913806392302e-01 0.0000000000000000e+00  8.4154254874137835e-01 9.2418752322769293e-01 0.0000000000000000e+00  4.2949430832078417e-01 2.0016552611979077e-01 0.0000000000000000e+00  1.1893003601425061e+00 5.5008836957967898e-02 0.0000000000000000e+00  1.2306872640973339e+00 -1.2227621606400779e-05 0.0000000000000000e+00  1.5634544770376415e+00 9.6916892231677654e-02 0.0000000000000000e+00  1.3831565134264390e+00 2.4777452507928130e-01 0.0000000000000000e+00  -5.1892857286880201e-02 9.0425799505930035e-02 0.0000000000000000e+00  5.9374084866017041e-01 -6.2847843350289956e-01 0.0000000000000000e+00  1.0807153448635083e+00 -3.9198612268544930e-02 0.0000000000000000e+00  1.9264612624743993e+00 -8.0589436417118843e-01 0.0000000000000000e+00  1.1725452978519153e+00 -1.8298308913149638e-05 0.0000000000000000e+00  2.9076736254843499e-01 2.7949798315677933e-02 0.0000000000000000e+00  -4.6240838046620264e-01 -1.9507201032252502e-01 0.0000000000000000e+00  9.1945031917886899e-01 -1.4553336770121320e-01 0.0000000000000000e+00  1.1596315783001572e+00 -1.0870140098947596e+00 0.0000000000000000e+00  1.3190616619840716e+00 -1.3403723400290615e-01 0.0000000000000000e+00  8.8354033158106793e-01 -1.1186767949659841e-01 0.0000000000000000e+00  1.2363343569552514e+00 -3.3118271452062448e-02 0.0000000000000000e+00  6.7110000119139646e-01 -6.4118846105085156e-02 0.0000000000000000e+00  -8.3351593291581920e-03 -5.3553030129353273e-02 0.0000000000000000e+00  1.4046918715588743e+00 7.6299470608870948e-02 0.0000000000000000e+00  1.7639203957047158e+00 -5.1813571613673015e-01 0.0000000000000000e+00  1.1096333020442481e+00 -4.0030686943798167e-02 0.0000000000000000e+00  1.7586421500600999e+00 -1.0012687166534338e+00 0.0000000000000000e+00  1.1048308101006876e+00 -1.8511733111418563e-04 0.0000000000000000e+00  1.5293688410368740e+00 -4.2543047315520929e-02 0.0000000000000000e+00  1.0984698823507693e+00 9.7887740802632350e-02 0.0000000000000000e+00  1.4141230532184645e+00 8.9727630486958893e-02 0.0000000000000000e+00  1.0340173620070963e+00 1.6291703249196843e-01 0.0000000000000000e+00  -1.7328162671565001e-01 6.1479340796824610e-03 0.0000000000000000e+00  1.1100209648376029e+00 5.4317625133046906e-05 0.0000000000000000e+00  1.3638515544074084e+00 4.3808174655600873e-01 0.0000000000000000e+00  1.3577872730394540e+00 -9.0637863809738012e-02 0.0000000000000000e+00  1.2706924324077447e+00 1.6784518867895479e-01 0.0000000000000000e+00  1.2291803261294842e+00 -5.3541834107461847e-03 0.0000000000000000e+00  1.3038786190573870e+00 1.1769620539947634e-01 0.0000000000000000e+00  1.5320422259544801e+00 2.7799770907981136e-01 0.0000000000000000e+00  9.2983613188809078e-01 -7.3258799811314376e-02 0.0000000000000000e+00  1.8573477103343283e+00 -5.0192324196392468e-02 0.0000000000000000e+00  -4.9174077612449796e-02 8.7841746853414893e-02 0.0000000000000000e+00  1.2308124989519564e+00 -4.8405281678926416e-04 0.0000000000000000e+00  1.5794685615295427e+00 4.0824141629295135e-01 0.0000000000000000e+00  1.1829366989260082e+00 5.6400248962626645e-02 0.0000000000000000e+00  1.1471049116618788e+00 4.8212398655339633e-02 0.0000000000000000e+00  1.0808168376090537e+00 -2.5409568587005457e-04 0.0000000000000000e+00  1.2246587228660739e+00 -7.7610543893029030e-02 0.0000000000000000e+00  1.3537637654780457e+00 3.0326011037775259e-02 0.0000000000000000e+00  1.6366914819179417e+00 1.3343574777306796e-02 0.0000000000000000e+00  -2.7905843563950719e-02 9.3184660073180936e-02 0.0000000000000000e+00  1.2680258952572461e+00 -3.1858228640483893e-01 0.0000000000000000e+00  1.1473098045399195e+00 -2.6068450998811926e-01 0.0000000000000000e+00  1.2194613903644214e+00 -2.2656850157257526e-02 0.0000000000000000e+00  1.0891863443907703e+00 3.9423253096121755e-02 0.0000000000000000e+00  9.9486932742176848e-01 1.2320912303179639e-01 0.0000000000000000e+00  1.0284679657267242e+00 1.1661652766382683e-02 0.0000000000000000e+00  1.3792297607581252e+00 -2.2837104017524165e-01 0.0000000000000000e+00  1.8926734075686260e+00 2.2238403339574606e-01 0.0000000000000000e+00  8.4796228616897862e-01 1.4096458086086233e-01 0.0000000000000000e+00  1.0607310492419439e+00 -2.4075167119486016e-01 0.0000000000000000e+00  9.5676152763951383e-01 -1.6011235903050200e-01 0.0000000000000000e+00  -3.5352367584204464e-01 -1.4463512302530482e-01 0.0000000000000000e+00  -2.1512670810092793e-01 -1.7580624758316479e-02 0.0000000000000000e+00  1.0444208090671572e+00 3.8420692551295793e-05 0.0000000000000000e+00  1.0111094893342294e+00 -6.7148245619927461e-05 0.0000000000000000e+00  7.8457623177984814e-01 3.9836825627173661e-01 0.0000000000000000e+00  1.3875350401464233e+00 -7.9959273126868402e-02 0.0000000000000000e+00  1.7642602511371872e-01 1.7335939669637296e-01 0.0000000000000000e+00  1.0379492377734512e+00 -2.9767311407341308e-03 0.0000000000000000e+00  1.2278472217932646e+00 -1.2083764022317077e-03 0.0000000000000000e+00  9.3906721965086359e-01 -1.7998276223773634e-05 0.0000000000000000e+00  6.6966785011789015e-02 -1.2074797614676087e-01 0.0000000000000000e+00  8.8248253242109187e-01 4.7326728204073375e-02 0.0000000000000000e+00  1.0395660941336156e+00 -7.3878400219105659e-03 0.0000000000000000e+00  1.0922733296928850e+00 1.1347737060966854e+00 0.0000000000000000e+00  1.6609588521525536e+00 9.5859261761143399e-01 0.0000000000000000e+00  4.5065414623977351e-01 6.5094731398054195e-01 0.0000000000000000e+00  3.0445074187653981e-01 -2.4910466768528292e-01 0.0000000000000000e+00  9.5848285816978296e-01 9.3967405471728441e-03 0.0000000000000000e+00  -3.1251964675974471e-02 5.5912550154337479e-02 0.0000000000000000e+00  1.4020346516993649e+00 3.6851598658643536e-01 0.0000000000000000e+00  -6.1169876723940329e-02 -7.0688962187107421e-02 0.0000000000000000e+00  -3.5380120312312247e-02 -7.1183035988104507e-02 0.0000000000000000e+00  1.2206501621464863e+00 4.4652309990849686e-05 0.0000000000000000e+00  1.2188420140364769e+00 -6.8342193102964490e-05 0.0000000000000000e+00  7.4226350622852211e-01 -9.8702566799421609e-01 0.0000000000000000e+00  1.1951596517195684e+00 -1.4285208282159953e-01 0.0000000000000000e+00  6.1212170018237622e-01 5.3287506250157532e-02 0.0000000000000000e+00  5.9463836851369400e-01 -4.7426441761437302e-02 0.0000000000000000e+00  7.8508115086876695e-01 -3.4947032616691145e-02 0.0000000000000000e+00  1.3790927837516873e+00 -4.7544674466885617e-01 0.0000000000000000e+00  5.5299038117491750e-01 5.0378080574852636e-02 0.0000000000000000e+00  4.5487110592031904e-01 2.7012910518748504e-02 0.0000000000000000e+00  8.8098275505546830e-01 -3.1073388097951839e-04 0.0000000000000000e+00  -1.0112886253247252e-01 -1.1456912216478270e-01 0.0000000000000000e+00  1.0083544808218627e+00 -8.3860156774997112e-06 0.0000000000000000e+00  1.5726365427290705e+00 1.7442649772293464e-01 0.0000000000000000e+00  9.4248954580301658e-01 3.8798363431311119e-03 0.0000000000000000e+00  1.7945731777900040e+00 1.4031121871327590e-01 0.0000000000000000e+00  1.4587133685018210e+00 -1.1403946280960843e-02 0.0000000000000000e+00  1.5741073526999194e+00 5.8564283679182561e-01 0.0000000000000000e+00  8.1860438430115634e-01 -4.6617434928619729e-02 0.0000000000000000e+00  1.2212894298116037e+00 -2.1891346492540196e-03 0.0000000000000000e+00  1.2270010346808300e+00 -9.0073630128681657e-03 0.0000000000000000e+00  1.2135769295733241e+00 -5.1497826871056947e-03 0.0000000000000000e+00  1.2266801821798332e+00 -2.6010486365666430e-03 0.0000000000000000e+00  1.1985154223992487e+00 5.0808952751763828e-04 0.0000000000000000e+00  1.2890258823613761e+00 -3.9772739275440089e-02 0.0000000000000000e+00  1.2445697363169366e+00 -4.5543936033132656e-02 0.0000000000000000e+00  1.1998500640685714e+00 -7.9169331405398433e-02 0.0000000000000000e+00  1.2591845778705066e+00 -6.4120548623202323e-02 0.0000000000000000e+00  1.2001950718689378