<?xml version="1.0"?>
<VTKFile type="UnstructuredGrid"  version="0.1"  >
<UnstructuredGrid>
<Piece  NumberOfPoints="3852" NumberOfCells="7360">
<Points>
<DataArray  type="Float64"  NumberOfComponents="3"  format="ascii">0 0 0  0 0.41 0  2.2 0.41 0  2.2 0 0  0.2 0.15 0  0.15 0.2 0  0.2 0.25 0  0.25 0.2 0  0.2097545161007899 0.1509607359798352 0  0.219134171618224 0.153806023374423 0  0.2277785116509268 0.1584265193848371 0  0.2353553390592504 0.1646446609405956 0  0.2415734806150793 0.1722214883489481 0  0.2461939766255306 0.1808658283816641 0  0.249039264020151 0.1902454838991403 0  0.2490392640201666 0.2097545161007811 0  0.2461939766255869 0.2191341716182 0  0.2415734806151802 0.2277785116509009 0  0.2353553390594108 0.235355339059244 0  0.2277785116510524 0.2415734806150789 0  0.2191341716182962 0.2461939766255471 0  0.209754516100834 0.2490392640201561 0  0.1902454838992189 0.2490392640201666 0  0.1808658283818 0.2461939766255869 0  0.1722214883490991 0.2415734806151802 0  0.164644660940756 0.2353553390594108 0  0.1584265193849211 0.2277785116510524 0  0.1538060233744529 0.2191341716182962 0  0.150960735979844 0.209754516100834 0  0.1509607359798352 0.1902454838992101 0  0.153806023374423 0.180865828381776 0  0.1584265193848371 0.1722214883490732 0  0.1646446609405956 0.1646446609407496 0  0.1722214883489481 0.1584265193849207 0  0.1808658283816641 0.1538060233744694 0  0.1902454838991403 0.150960735979849 0  0.09999999999980318 0 0  0.1999999999996354 0 0  0.2999999999994593 0 0  0.3999999999991452 0 0  0.4999999999988309 0 0  0.599999999998495 0 0  0.6999999999982023 0 0  0.7999999999979096 0 0  0.8999999999975735 0 0  0.9999999999972848 0 0  1.099999999997053 0 0  1.199999999997309 0 0  1.299999999997566 0 0  1.399999999997821 0 0  1.49999999999809 0 0  1.599999999998377 0 0  1.69999999999859 0 0  1.799999999998877 0 0  1.899999999999145 0 0  1.999999999999386 0 0  2.099999999999693 0 0  2.2 0.08199999999981657 0  2.2 0.1639999999995688 0  2.2 0.2459999999995603 0  2.2 0.327999999999785 0  2.100000000000048 0.41 0  2.000000000000269 0.41 0  1.900000000000422 0.41 0  1.800000000000679 0.41 0  1.700000000000931 0.41 0  1.600000000001326 0.41 0  1.500000000001665 0.41 0  1.400000000002032 0.41 0  1.300000000002395 0.41 0  1.200000000002644 0.41 0  1.100000000002865 0.41 0  1.000000000002617 0.41 0  0.900000000002368 0.41 0  0.8000000000021192 0.41 0  0.7000000000018587 0.41 0  0.6000000000015786 0.41 0  0.5000000000013736 0.41 0  0.4000000000010933 0.41 0  0.3000000000008329 0.41 0  0.2000000000005997 0.41 0  0.1000000000003003 0.41 0  0 0.3280000000001975 0  0 0.2460000000004372 0  0 0.1640000000004437 0  0 0.08200000000021695 0  0.439039350479032 0.2235433210862024 0  0.3557293424662716 0.1539377961885917 0  0.3450132387946972 0.2399891502764809 0  0.2900756359792848 0.08507884665974728 0  0.2884413411145515 0.3059878288466324 0  0.2102195502178943 0.3385267178242456 0  0.137328909169326 0.3152847369018352 0  0.08490385663776813 0.2628976192695439 0  0.08063302347471875 0.188368977740952 0  0.1005937615311739 0.1162460982751979 0  0.1621860847198582 0.08598327887900903 0  0.3012864586130264 0.1926027915888804 0  1.999140000000448 0.2049999999995642 0  0.2742354912953259 0.1572259708446958 0  0.2871471664627305 0.2264358039321654 0  0.6542851578645765 0.1981889790488746 0  0.2651366296338276 0.2534562504463119 0  0.2371819217149928 0.0977949043027586 0  1.651678197071202 0.2145186615851206 0  1.349674714201118 0.2086119645070391 0  0.9627539291831038 0.2056711800839285 0  0.2360880502985623 0.2733043913425156 0  1.159884231859056 0.2050429640239795 0  0.2502927927237266 0.1358797630898622 0  0.2080582834123368 0.2835355213895352 0  0.1805439632603489 0.278338480667804 0  0.1486243506827335 0.2626014098227327 0  0.1266658889266303 0.2392753516137401 0  0.1179814841582247 0.2069380844236527 0  0.1225167704961566 0.1764957192948648 0  0.1357996569043286 0.1472158045151807 0  0.1619764829264572 0.126298308975886 0  0.1935640279204225 0.116654032325456 0  1.82457000000085 0.2346439024393236 0  0.8027657238591595 0.149277802568535 0  1.498563450727992 0.2632867809910664 0  0.2770405925201826 0.1924926016722167 0  0.470924801584011 0.09138612536042019 0  0.550693598792917 0.2898604497866635 0  0.381089831438127 0.3238078833671811 0  2.074516462495042 0.125705772324225 0  2.083599037046577 0.2769549245607841 0  0.2692296340100125 0.2210592970306522 0  0.7614733075682367 0.2839235561638241 0  1.536698221979284 0.1258192462655419 0  1.231809489345021 0.1282542717942667 0  1.054759157670174 0.1242749934189342 0  1.754535566851005 0.1223197024158991 0  1.90452621597739 0.1324728094649104 0  0.2672409321155211 0.178737994598723 0  1.254401531996246 0.2902808614622134 0  1.04350934597445 0.2986664252663559 0  0.0749710792305778 0.3208721925318313 0  0.5425289614095572 0.165152457827861 0  0.1663208394680799 0.2644065126118989 0  0.1471335176887868 0.2433864007787126 0  0.1345556779484054 0.219852318055334 0  0.131940483167677 0.1932967226753857 0  0.1941574795820069 0.2685534232066453 0  0.2226696214021025 0.1252682734732412 0  0.2193882214552426 0.2661718674478616 0  0.1396865053227576 0.1677617654469802 0  0.8749487631478475 0.295170577255529 0  1.424301820545763 0.1157348858866879 0  1.918515045506933 0.2902236143624367 0  1.744876807925144 0.306628844405037 0  0.2443979144126529 0.254353837216211 0  0.2569054246570621 0.2306780201523878 0  0.2632507216716993 0.2062296523407826 0  0.4609453431326088 0.3138128990490959 0  0.3578015395476809 0.08253318517696946 0  0.2529777826635333 0.155582948480283 0  0.1580369715200277 0.1487041474358234 0  0.652872088668587 0.3101079993636056 0  0.297147332491062 0.2558065812325378 0  0.6188247313471635 0.1101603945467571 0  0.8951149554961688 0.1123812542864208 0  1.592749166085722 0.2985190085719691 0  1.40420309431358 0.2992155383468256 0  1.649189110727275 0.1000387439201274 0  0.2301663900864273 0.1432830242131801 0  0.2064839406544439 0.1345771465164309 0  0.2548204572493643 0.1702022465417566 0  0.1606700828011604 0.2481621709908606 0  0.2605987457303776 0.1928909671966518 0  0.1826942838524941 0.2594610608897559 0  0.1456438338561037 0.2290651013631561 0  0.1387681034994896 0.2058679665896095 0  1.140902260384949 0.3081952438204152 0  2.123402621966431 0.2039515281261525 0  0.7272188829630218 0.1047469619375249 0  0.2060868819369127 0.2616331638469837 0  0.246763614216289 0.2411610007697902 0  0.1405961691450822 0.1819800466423126 0  1.149638048863541 0.08264492713269313 0  0.1809997740285721 0.1365020267363126 0  1.993198408221569 0.09755938404998035 0  0.2287111352430851 0.2547015941619741 0  0.3818716699056283 0.2060398770290832 0  0.39147508084147 0.2656155699545688 0  0.151201080877373 0.1608659990301362 0  0.0542521118046473 0.1382221876243976 0  0.06190301158313444 0.0685934933767465 0  1.317316039400266 0.1015983144534349 0  0.2176417279723976 0.1415790407114221 0  0.2401571300978209 0.1529210337009423 0  0.2618092962776011 0.3566662607419938 0  0.1941527094396574 0.1377969918002053 0  0.9590486261329707 0.3255353063371385 0  0.1708201090411339 0.1447474051814825 0  1.837592370686806 0.3302992722413595 0  0.3197015570210796 0.1212159119695666 0  0.4155281956943757 0.1409543952531078 0  0.0549491513262805 0.2307535706287103 0  0.1668210562270142 0.3605647861782867 0  0.2854688902460447 0.2093700809023571 0  2.013251581901814 0.3292746985146142 0  0.1192191106244758 0.2809901915857802 0  0.2487958366614321 0.04556523514103697 0  0.09061021186838321 0.2240174335271237 0  1.737143840576958 0.20912817770623 0  0.04515017012776967 0.2784708690411318 0  0.5347554646753627 0.08988970780599832 0  0.977104673723579 0.08241628541188413 0  0.336509991617897 0.2888965225844298 0  0.2569238041969055 0.2173711314485607 0  1.906541186051535 0.2125389476829634 0  0.1762338839607841 0.3102437166134606 0  1.449268841077636 0.201011295143529 0  0.8555371485878378 0.2099663446585434 0  1.837208236203613 0.07556229833764837 0  1.264402545318887 0.1992523923163096 0  1.068181074047183 0.2155119107017876 0  0.3158931250274742 0.3421721218291775 0  0.2731958384900449 0.2373435058667565 0  0.09875906484220501 0.1533097574901186 0  0.7355755433976705 0.2066339904079041 0  1.567440499207928 0.2049999999995983 0  1.329829828222916 0.3295825481537897 0  0.8214190147401245 0.07894167681990104 0  1.525459989258997 0.3394220200696043 0  0.1990897327079506 0.06300531675246424 0  0.244701762210989 0.3062404318132603 0  0.1033853772622983 0.3551443431224104 0  0.1178236825374896 0.07148041782551597 0  0.1558198999929474 0.04409380269139784 0  0.3389178979413869 0.198678920661321 0  0.310790717645908 0.2196004930752872 0  2.125022007676643 0.3402049371791425 0  2.130028889485561 0.06535501282233655 0  0.4821161335597635 0.1626909543876269 0  0.2838678108956019 0.1254276466262967 0  0.5062815929260498 0.2376271077316994 0  1.663059277092996 0.3422301118688678 0  1.82292665764828 0.1574809263836269 0  2.052538557905295 0.05717536030732174 0  0.3078251537889645 0.16056368457456 0  0.8108267070172145 0.3390047366820738 0  1.487254632568403 0.0703866281621833 0  0.155004430757041 0.2369517702015699 0  0.1725545045705267 0.2519594403466565 0  0.1445581653510352 0.2167994984574706 0  0.1420710285613199 0.1942747855116325 0  1.461861739291679 0.3471998553985149 0  0.2372128969196007 0.2453440460936858 0  0.1943665918892754 0.2580518465884657 0  0.2452139232912363 0.1629124725160763 0  0.2555786751481889 0.1825885041235872 0  2.14640473333793 0.2790222779730848 0  2.145589594789407 0.1282024626544199 0  0.1486651579751984 0.1726583296292201 0  0.550000000001476 0.3603327897285098 0  0.0505668771231032 0.3660023622363767 0  1.049999999997169 0.05217028468202135 0  1.244771793631775 0.05744029386223062 0  0.1356759337238615 0.1094447816941579 0  0.5872326411628903 0.2223148728195226 0  0.2168458206248643 0.2558159203714847 0  1.749999999998732 0.05166028789524129 0  0.2855257256666041 0.1763246086558152 0  1.92
[...]
<PointData  Vectors="f_22"> 
<DataArray  type="Float64"  Name="f_22"  NumberOfComponents="3" format="ascii">0.0000000000000000e+00 0.0000000000000000e+00 0.0000000000000000e+00  0.0000000000000000e+00 0.0000000000000000e+00 0.0000000000000000e+00  0.0000000000000000e+00 0.0000000000000000e+00 0.0000000000000000e+00  0.0000000000000000e+00 0.0000000000000000e+00 0.0000000000000000e+00  0.0000000000000000e+00 0.0000000000000000e+00 0.0000000000000000e+00  0.0000000000000000e+00 0.0000000000000000e+00 0.0000000000000000e+00  0.0000000000000000e+00 0.0000000000000000e+00 0.0000000000000000e+00  0.0000000000000000e+00 0.0000000000000000e+00 0.0000000000000000e+00  0.0000000000000000e+00 0.0000000000000000e+00 0.0000000000000000e+00  0.0000000000000000e+00 0.0000000000000000e+00 0.0000000000000000e+00  0.0000000000000000e+00 0.0000000000000000e+00 0.0000000000000000e+00  0.0000000000000000e+00 0.0000000000000000e+00 0.0000000000000000e+00  0.0000000000000000e+00 0.0000000000000000e+00 0.0000000000000000e+00  0.0000000000000000e+00 0.0000000000000000e+00 0.0000000000000000e+00  0.0000000000000000e+00 0.0000000000000000e+00 0.0000000000000000e+00  0.0000000000000000e+00 0.0000000000000000e+00 0.0000000000000000e+00  0.0000000000000000e+00 0.0000000000000000e+00 0.0000000000000000e+00  0.0000000000000000e+00 0.0000000000000000e+00 0.0000000000000000e+00  0.0000000000000000e+00 0.0000000000000000e+00 0.0000000000000000e+00  0.0000000000000000e+00 0.0000000000000000e+00 0.0000000000000000e+00  0.0000000000000000e+00 0.0000000000000000e+00 0.0000000000000000e+00  0.0000000000000000e+00 0.0000000000000000e+00 0.0000000000000000e+00  0.0000000000000000e+00 0.0000000000000000e+00 0.0000000000000000e+00  0.0000000000000000e+00 0.0000000000000000e+00 0.0000000000000000e+00  0.0000000000000000e+00 0.0000000000000000e+00 0.0000000000000000e+00  0.0000000000000000e+00 0.0000000000000000e+00 0.0000000000000000e+00  0.0000000000000000e+00 0.0000000000000000e+00 0.0000000000000000e+00  0.0000000000000000e+00 0.0000000000000000e+00 0.0000000000000000e+00  0.0000000000000000e+00 0.0000000000000000e+00 0.0000000000000000e+00  0.0000000000000000e+00 0.0000000000000000e+00 0.0000000000000000e+00  0.0000000000000000e+00 0.0000000000000000e+00 0.0000000000000000e+00  0.0000000000000000e+00 0.0000000000000000e+00 0.0000000000000000e+00  0.0000000000000000e+00 0.0000000000000000e+00 0.0000000000000000e+00  0.0000000000000000e+00 0.0000000000000000e+00 0.0000000000000000e+00  0.0000000000000000e+00 0.0000000000000000e+00 0.0000000000000000e+00  0.0000000000000000e+00 0.0000000000000000e+00 0.0000000000000000e+00  0.0000000000000000e+00 0.0000000000000000e+00 0.0000000000000000e+00  0.0000000000000000e+00 0.0000000000000000e+00 0.0000000000000000e+00  0.0000000000000000e+00 0.0000000000000000e+00 0.0000000000000000e+00  0.0000000000000000e+00 0.0000000000000000e+00 0.0000000000000000e+00  0.0000000000000000e+00 0.0000000000000000e+00 0.0000000000000000e+00  0.0000000000000000e+00 0.0000000000000000e+00 0.0000000000000000e+00  0.0000000000000000e+00 0.0000000000000000e+00 0.0000000000000000e+00  0.0000000000000000e+00 0.0000000000000000e+00 0.0000000000000000e+00  0.0000000000000000e+00 0.0000000000000000e+00 0.0000000000000000e+00  0.0000000000000000e+00 0.0000000000000000e+00 0.0000000000000000e+00  0.0000000000000000e+00 0.0000000000000000e+00 0.0000000000000000e+00  0.0000000000000000e+00 0.0000000000000000e+00 0.0000000000000000e+00  0.0000000000000000e+00 0.0000000000000000e+00 0.0000000000000000e+00  0.0000000000000000e+00 0.0000000000000000e+00 0.0000000000000000e+00  0.0000000000000000e+00 0.0000000000000000e+00 0.0000000000000000e+00  0.0000000000000000e+00 0.0000000000000000e+00 0.0000000000000000e+00  0.0000000000000000e+00 0.0000000000000000e+00 0.0000000000000000e+00  0.0000000000000000e+00 0.0000000000000000e+00 0.0000000000000000e+00  0.0000000000000000e+00 0.0000000000000000e+00 0.0000000000000000e+00  0.0000000000000000e+00 0.0000000000000000e+00 0.0000000000000000e+00  0.0000000000000000e+00 0.0000000000000000e+00 0.0000000000000000e+00  1.0918160838816804e+00 -9.9178393714352922e-04 0.0000000000000000e+00  1.2612343405011868e+00 -5.4607850846561824e-03 0.0000000000000000e+00  1.2709185995563566e+00 -8.4059615987781642e-03 0.0000000000000000e+00  1.0951309438129202e+00 -1.6481078646622049e-03 0.0000000000000000e+00  0.0000000000000000e+00 0.0000000000000000e+00 0.0000000000000000e+00  0.0000000000000000e+00 0.0000000000000000e+00 0.0000000000000000e+00  0.0000000000000000e+00 0.0000000000000000e+00 0.0000000000000000e+00  0.0000000000000000e+00 0.0000000000000000e+00 0.0000000000000000e+00  0.0000000000000000e+00 0.0000000000000000e+00 0.0000000000000000e+00  0.0000000000000000e+00 0.0000000000000000e+00 0.0000000000000000e+00  0.0000000000000000e+00 0.0000000000000000e+00 0.0000000000000000e+00  0.0000000000000000e+00 0.0000000000000000e+00 0.0000000000000000e+00  0.0000000000000000e+00 0.0000000000000000e+00 0.0000000000000000e+00  0.0000000000000000e+00 0.0000000000000000e+00 0.0000000000000000e+00  0.0000000000000000e+00 0.0000000000000000e+00 0.0000000000000000e+00  0.0000000000000000e+00 0.0000000000000000e+00 0.0000000000000000e+00  0.0000000000000000e+00 0.0000000000000000e+00 0.0000000000000000e+00  0.0000000000000000e+00 0.0000000000000000e+00 0.0000000000000000e+00  0.0000000000000000e+00 0.0000000000000000e+00 0.0000000000000000e+00  0.0000000000000000e+00 0.0000000000000000e+00 0.0000000000000000e+00  0.0000000000000000e+00 0.0000000000000000e+00 0.0000000000000000e+00  0.0000000000000000e+00 0.0000000000000000e+00 0.0000000000000000e+00  0.0000000000000000e+00 0.0000000000000000e+00 0.0000000000000000e+00  0.0000000000000000e+00 0.0000000000000000e+00 0.0000000000000000e+00  0.0000000000000000e+00 0.0000000000000000e+00 0.0000000000000000e+00  9.6000005120147214e-01 0.0000000000000000e+00 0.0000000000000000e+00  1.4400000768035299e+00 0.0000000000000000e+00 0.0000000000000000e+00  1.4400000768061085e+00 0.0000000000000000e+00 0.0000000000000000e+00  9.6000005120511145e-01 0.0000000000000000e+00 0.0000000000000000e+00  -2.5537691570300447e-01 -6.0975570197726092e-01 0.0000000000000000e+00  2.5290905559521298e-01 -1.4283840054541455e-01 0.0000000000000000e+00  2.4236981163703161e-01 -9.2062755043353678e-02 0.0000000000000000e+00  1.8321071509918283e+00 -8.7270425487520314e-02 0.0000000000000000e+00  1.9665790063936506e+00 4.0701615954499691e-02 0.0000000000000000e+00  1.4696462112235333e+00 2.0417939735063761e-01 0.0000000000000000e+00  1.3254542961908786e+00 3.5706151598184310e-01 0.0000000000000000e+00  1.3364561065273499e+00 2.7238187149473420e-01 0.0000000000000000e+00  1.3052925019469379e+00 -5.6057555970432701e-02 0.0000000000000000e+00  1.2578321465422595e+00 -3.1354169168235652e-01 0.0000000000000000e+00  1.3971286930077269e+00 -3.7244544514728251e-01 0.0000000000000000e+00  -2.3108637561164486e-01 3.6508158606249008e-02 0.0000000000000000e+00  1.2443702176149061e+00 2.2195322047380964e-02 0.0000000000000000e+00  -1.5900085686502737e-03 -1.9346860791918115e-02 0.0000000000000000e+00  -6.7914092363653061e-02 1.6148806305100230e-01 0.0000000000000000e+00  7.6089797730669717e-01 2.1755703013546884e-01 0.0000000000000000e+00  3.2408968671729838e-01 8.9314562208970494e-02 0.0000000000000000e+00  1.8676272073192604e+00 -2.4676761999620139e-01 0.0000000000000000e+00  1.3155969571607307e+00 4.4960172112695630e-02 0.0000000000000000e+00  1.3993807736550028e+00 -7.9904262494380929e-02 0.0000000000000000e+00  1.6524203146654806e+00 5.2077416405785415e-01 0.0000000000000000e+00  1.7852669008985562e+00 1.9975323889698848e-01 0.0000000000000000e+00  1.6798537144071037e+00 -3.1673719754977098e-01 0.0000000000000000e+00  8.7165096493402006e-01 -5.0783020991320017e-02 0.0000000000000000e+00  2.0239991664579247e+00 4.3122815421357008e-01 0.0000000000000000e+00  1.8883932949858138e+00 6.4636281176293886e-01 0.0000000000000000e+00  1.5104601811241318e+00 7.8948653681890135e-01 0.0000000000000000e+00  1.1565082035150871e+00 5.8182204407414706e-01 0.0000000000000000e+00  9.4116801794610316e-01 1.2834855477023574e-01 0.0000000000000000e+00  9.7925449645078244e-01 -3.7670480076931562e-01 0.0000000000000000e+00  1.2793419422783796e+00 -6.8405543250282508e-01 0.0000000000000000e+00  1.6332863155767963e+00 -7.1110243505892134e-01 0.0000000000000000e+00  1.8892190478910209e+00 -5.2982005577608005e-01 0.0000000000000000e+00  1.2314780446528357e+00 -4.1184028035292405e-02 0.0000000000000000e+00  1.1218024960379780e+00 -3.8477270700494731e-01 0.0000000000000000e+00  1.2723889330428815e+00 9.3206234135607441e-02 0.0000000000000000e+00  -1.3082812282025899e-01 5.8122671405445130e-02 0.0000000000000000e+00  1.8698800890516474e+00 3.9647609129722572e-01 0.0000000000000000e+00  1.4413770723801900e+00 1.7302254168479697e-01 0.0000000000000000e+00  1.6804831019939048e+00 -1.7661881628704235e-01 0.0000000000000000e+00  1.2199795836809240e+00 -3.3836188674961584e-03 0.0000000000000000e+00  1.2705156574890384e+00 -6.2074057937608869e-03 0.0000000000000000e+00  -7.8401511390462003e-02 1.8617377866270338e-01 0.0000000000000000e+00  1.4094602951413102e+00 -2.3395785313267642e-01 0.0000000000000000e+00  1.2781316590040879e+00 -8.5627289921369906e-02 0.0000000000000000e+00  1.2803213085326914e+00 -9.6954932544125683e-02 0.0000000000000000e+00  1.1336544358666967e+00 -1.2626910817641854e-01 0.0000000000000000e+00  1.2133952739805911e+00 -4.8631563961632693e-02 0.0000000000000000e+00  1.2703706732908597e+00 9.1245755302017499e-03 0.0000000000000000e+00  -8.1857076653497673e-02 -5.2665114425933445e-03 0.0000000000000000e+00  1.1707320934237826e+00 9.9662790045371361e-02 0.0000000000000000e+00  1.4781471364277221e+00 -8.6996482586428808e-02 0.0000000000000000e+00  1.0816141374175106e+00 1.7716628553210595e-01 0.0000000000000000e+00  1.3476326215735963e+00 8.2839748460960061e-01 0.0000000000000000e+00  1.7670247892963691e+00 8.6969533841355162e-01 0.0000000000000000e+00  1.2504505251233737e+00 9.6533172678802681e-01 0.0000000000000000e+00  7.6704687654040893e-01 5.3821337913089817e-01 0.0000000000000000e+00  6.4331130171507089e-01 -1.7033712735733814e-01 0.0000000000000000e+00  2.0467516117679119e+00 5.9732574031097507e-01 0.0000000000000000e+00  1.8905326536096310e+00 -3.0626600028287770e-01 0.0000000000000000e+00  1.5381917293708693e+00 2.0718601884464752e-01 0.0000000000000000e+00  9.5456129083472263e-01 -7.7729500004576491e-01 0.0000000000000000e+00  9.2480363111255703e-01 3.4009878206444466e-02 0.0000000000000000e+00  1.3319785666003501e+00 -2.2797831630992551e-02 0.0000000000000000e+00  1.2549738576221054e+00 9.8175037553605948e-04 0.0000000000000000e+00  1.1953737502969723e+00 4.5257790727338938e-02 0.0000000000000000e+00  2.8877014925989525e-01 5.2616928426928007e-02 0.0000000000000000e+00  -6.3844077189254167e-02 1.7832366315775863e-01 0.0000000000000000e+00  -6.1499337354361770e-02 1.4348601675387629e-01 0.0000000000000000e+00  1.5269615458100367e+00 -6.9225301502529271e-02 0.0000000000000000e+00  1.8701832560770191e+00 1.9346392531625862e-02 0.0000000000000000e+00  -1.2594753160475317e-02 -4.0651717998054719e-02 0.0000000000000000e+00  1.4942672884273058e+00 -1.0283867856713318e+00 0.0000000000000000e+00  1.8141883902734126e+00 -4.1220459404400062e-01 0.0000000000000000e+00  5.7523273723624369e-01 6.1021491878945441e-02 0.0000000000000000e+00  1.1695599363528004e+00 4.4984628461608278e-02 0.0000000000000000e+00  1.5871808011743234e+00 3.9275156930891525e-01 0.0000000000000000e+00  1.3278518953281333e+00 5.1805033394649931e-02 0.0000000000000000e+00  1.2422724825955340e+00 -1.9370223381919495e-02 0.0000000000000000e+00  1.1534789578306051e+00 -6.8748314131695520e-03 0.0000000000000000e+00  4.1743110858833055e-01 -3.1874771807191622e-02 0.0000000000000000e+00  1.6783970855389705e+00 -3.4128657123700090e-01 0.0000000000000000e+00  -5.5251361818198945e-02 -3.6462247462648534e-02 0.0000000000000000e+00  1.5323538211026448e+00 1.1337574922091382e+00 0.0000000000000000e+00  -3.8730901737095709e-02 6.7449935754849741e-02 0.0000000000000000e+00  1.9135481842123261e+00 7.7873739518855922e-01 0.0000000000000000e+00  8.5409359208100921e-01 9.4835262509703666e-01 0.0000000000000000e+00  4.3237679749430213e-01 2.2705783719688569e-01 0.0000000000000000e+00  1.1919743008558774e+00 -1.3738510981344329e-01 0.0000000000000000e+00  1.2669463305307107e+00 -1.7295835881483104e-02 0.0000000000000000e+00  9.3804728728828635e-01 -1.7281208210225593e-01 0.0000000000000000e+00  1.4267015108906065e+00 2.4834798682976275e-01 0.0000000000000000e+00  -5.1400223444645163e-02 1.0782547987536914e-01 0.0000000000000000e+00  5.8793202835047265e-01 -6.0372727874606691e-01 0.0000000000000000e+00  9.5322241400007368e-01 4.5445213885302184e-02 0.0000000000000000e+00  1.9173458248685502e+00 -7.9482487418763514e-01 0.0000000000000000e+00  1.1638252300968250e+00 5.2393382653947301e-03 0.0000000000000000e+00  3.1211051454618111e-01 2.7134715627473712e-02 0.0000000000000000e+00  -4.0438481488126410e-01 -4.0605871871255611e-01 0.0000000000000000e+00  1.3256075716095521e+00 -4.3072932878276149e-01 0.0000000000000000e+00  1.1485963888147095e+00 -1.0679575847024987e+00 0.0000000000000000e+00  1.3178789722197806e+00 -1.2591250530760392e-01 0.0000000000000000e+00  8.8145261541155728e-01 -1.0680929185915031e-01 0.0000000000000000e+00  1.2602222549750137e+00 4.4792460584382864e-03 0.0000000000000000e+00  6.8949566387412431e-01 -5.8648533495057879e-02 0.0000000000000000e+00  4.9168942163382396e-03 -4.2689234857411169e-02 0.0000000000000000e+00  1.3951679499621232e+00 5.2920541203233633e-02 0.0000000000000000e+00  1.7640143325602597e+00 -5.1131875840130614e-01 0.0000000000000000e+00  1.1254015872374226e+00 1.5556922502930237e-03 0.0000000000000000e+00  1.7481352198138287e+00 -9.8937992106939465e-01 0.0000000000000000e+00  1.0989551676735914e+00 -5.8897091557820686e-03 0.0000000000000000e+00  1.4746675115252086e+00 -1.1673425429858310e-02 0.0000000000000000e+00  1.0590654860624502e+00 -8.7419252658024985e-02 0.0000000000000000e+00  1.4152729010962399e+00 9.8534714234545726e-02 0.0000000000000000e+00  1.0396918971964728e+00 1.6052683015191774e-01 0.0000000000000000e+00  -1.5563088175471360e-01 1.2557796908355667e-01 0.0000000000000000e+00  1.0932971298971079e+00 -8.7950902204189907e-05 0.0000000000000000e+00  1.3727714142775658e+00 4.4804342631721306e-01 0.0000000000000000e+00  1.3293224092434277e+00 -8.3941092689363297e-02 0.0000000000000000e+00  1.2736172678159032e+00 1.8324709670178232e-01 0.0000000000000000e+00  1.3091465082594091e+00 -6.1634940322732291e-02 0.0000000000000000e+00  1.3050190495057750e+00 1.2262644138768941e-01 0.0000000000000000e+00  1.4946135193054331e+00 3.9485537419702510e-01 0.0000000000000000e+00  8.3951414081837972e-01 -4.0097664002480701e-02 0.0000000000000000e+00  1.9802108115592514e+00 -1.6827662971304580e-01 0.0000000000000000e+00  -5.5614456969991170e-02 1.6876248612687966e-01 0.0000000000000000e+00  1.2266390253079444e+00 2.7263078346780722e-02 0.0000000000000000e+00  1.5932948576272612e+00 4.0557764024442233e-01 0.0000000000000000e+00  1.5036324110476034e+00 8.6826447255318143e-02 0.0000000000000000e+00  1.1513373814923960e+00 -3.7947515527529718e-01 0.0000000000000000e+00  1.0437646258417199e+00 -7.6858942142498709e-03 0.0000000000000000e+00  1.6333371344989767e+00 -4.8177349259286184e-02 0.0000000000000000e+00  1.4379267428712375e+00 1.6002630221793515e-01 0.0000000000000000e+00  1.6056420041339179e+00 -4.2865058915543229e-02 0.0000000000000000e+00  1.8474085475456797e-02 1.6825738853553063e-01 0.0000000000000000e+00  1.2644227837270183e+00 -3.0293366191313464e-01 0.0000000000000000e+00  1.4329786264731847e+00 -7.2445464798540071e-01 0.0000000000000000e+00  1.3272238560097889e+00 1.0654352892252164e-01 0.0000000000000000e+00  9.8150834421513466e-01 1.6749505603749989e-02 0.0000000000000000e+00  1.3430978741652044e+00 1.7525322463490392e-01 0.0000000000000000e+00  8.8278654547378954e-01 4.6887260768845654e-02 0.0000000000000000e+00  1.3609356611047134e+00 -2.1926045236791539e-01 0.0000000000000000e+00  1.9090189991049924e+00 1.9657361592424752e-01 0.0000000000000000e+00  8.5169972730588384e-01 1.4343785005199985e-01 0.0000000000000000e+00  1.0533818869495415e+00 -2.3220206993463213e-01 0.0000000000000000e+00  9.4328071126534041e-01 -1.5445628571170825e-01 0.0000000000000000e+00  -3.5226606362979823e-01 -8.6181934057512080e-02 0.0000000000000000e+00  -1.6361408790036885e-01 9.6859406856756203e-02 0.0000000000000000e+00  1.0137843010386189e+00 -1.8451117557869105e-03 0.0000000000000000e+00  9.6988312786465991e-01 -8.2657576701108525e-04 0.0000000000000000e+00  1.1603227665378733e+00 3.5606007597499101e-01 0.0000000000000000e+00  1.3904990907221635e+00 -3.7100392552626406e-02 0.0000000000000000e+00  -5.2734900735275592e-02 7.2948982645323221e-02 0.0000000000000000e+00  9.2315548604888509e-01 4.0628208853664659e-02 0.0000000000000000e+00  1.2638160364685604e+00 -3.7740422870710749e-02 0.0000000000000000e+00  8.9176649348713599e-01 2.7551286313623599e-04 0.0000000000000000e+00  -6.4306519847635614e-03 -1.8579790154671972e-02 0.0000000000000000e+00  8.4422418076370931e-01 9.8362324908861723e-02 0.0000000000000000e+00  8.8445376642995621e-01 -6.4690326365312106e-02 0.0000000000000000e+00  1.1096374011948451e+00 1.1562679967923084e+00 0.0000000000000000e+00  1.6875877016781733e+00 9.7204673403505382e-01 0.0000000000000000e+00  4.5852916716354225e-01 6.7738027424037517e-01 0.0000000000000000e+00  3.0246616760235012e-01 -2.2241274071305850e-01 0.0000000000000000e+00  7.5536803149446574e-01 2.3602393944273929e-02 0.0000000000000000e+00  -3.1760853114458282e-02 5.8273952959315881e-02 0.0000000000000000e+00  1.4373016716775600e+00 3.7327572581787771e-01 0.0000000000000000e+00  -5.4864861226823616e-02 -4.9175370872556023e-02 0.0000000000000000e+00  -2.4473168092339816e-02 9.1873101745723069e-03 0.0000000000000000e+00  1.2572012972446245e+00 -5.9022351506288614e-03 0.0000000000000000e+00  1.2337103646261869e+00 -4.0360240356630203e-03 0.0000000000000000e+00  7.3281970248135975e-01 -9.6538052018971721e-01 0.0000000000000000e+00  1.2311358482026202e+00 -2.7614622289162030e-02 0.0000000000000000e+00  6.1304589833521428e-01 5.4836532247697044e-02 0.0000000000000000e+00  6.3469727999787262e-01 -3.1917296740825947e-02 0.0000000000000000e+00  6.3479196394042481e-01 5.2066949128610485e-03 0.0000000000000000e+00  1.3705044144214711e+00 -4.6225386947093416e-01 0.0000000000000000e+00  4.8155508520652357e-01 8.1345714014584392e-01 0.0000000000000000e+00  4.7918292422236380e-01 2.6301783205235650e-02 0.0000000000000000e+00  8.0773227267071090e-01 -1.1783176296862978e-02 0.0000000000000000e+00  -1.3099025139265152e-01 -2.0429784535267283e-03 0.0000000000000000e+00  9.7138916062813929e-01 1.1025115768581932e-03 0.0000000000000000e+00  1.5775731492945799e+00 1.7314736476048939e-01 0.0000000000000000e+00  8.1674339222134873e-01 -2.0814684112388730e-02 0.0000000000000000e+00  1.8691172790560844e+00 1.2397744704149634e-01 0.0000000000000000e+00  1.4587438470611682e+00 -4.9191799375205127e-03 0.0000000000000000e+00  1.5896546450279301e+00 5.9160411887438213e-01 0.0000000000000000e+00  8.7030434350718899e-01 -1.1852665845660537e-01 0.0000000000000000e+00  1.1729983800043002e+00 -2.6605698837230241e-02 0.0000000000000000e+00  1.3347880451533616e+00 -4.6056578759051989e-02 0.0000000000000000e+00  1.1916868245379924e+00 4.4609274022539752e-02 0.0000000000000000e+00  1.2014346589874028e+00 -8.2645610929201210e-02 0.0000000000000000e+00  1.1719757605900902e+00 -2.9749345529089671e-02 0.0000000000000000e+00  1.1266788735064717e+00 -1.4085952810422943e-02 0.0000000000000000e+00  1.0315195556527585e+00 -1.8457523057110518e-02 0.0000000000000000e+00  1.3975135190976880e+00 -2.6453184901781268e-01 0.0000000000000000e+00  1.0882360711624368e+00 5.3097304096151716e-02 0.0000000000000000e+00  1.1135638070038008e+00 1.