<?xml version="1.0"?>
<VTKFile type="UnstructuredGrid"  version="0.1"  >
<UnstructuredGrid>
<Piece  NumberOfPoints="3852" NumberOfCells="7360">
<Points>
<DataArray  type="Float64"  NumberOfComponents="3"  format="ascii">0 0 0  0 0.41 0  2.2 0.41 0  2.2 0 0  0.2 0.15 0  0.15 0.2 0  0.2 0.25 0  0.25 0.2 0  0.2097545161007899 0.1509607359798352 0  0.219134171618224 0.153806023374423 0  0.2277785116509268 0.1584265193848371 0  0.2353553390592504 0.1646446609405956 0  0.2415734806150793 0.1722214883489481 0  0.2461939766255306 0.1808658283816641 0  0.249039264020151 0.1902454838991403 0  0.2490392640201666 0.2097545161007811 0  0.2461939766255869 0.2191341716182 0  0.2415734806151802 0.2277785116509009 0  0.2353553390594108 0.235355339059244 0  0.2277785116510524 0.2415734806150789 0  0.2191341716182962 0.2461939766255471 0  0.209754516100834 0.2490392640201561 0  0.1902454838992189 0.2490392640201666 0  0.1808658283818 0.2461939766255869 0  0.1722214883490991 0.2415734806151802 0  0.164644660940756 0.2353553390594108 0  0.1584265193849211 0.2277785116510524 0  0.1538060233744529 0.2191341716182962 0  0.150960735979844 0.209754516100834 0  0.1509607359798352 0.1902454838992101 0  0.153806023374423 0.180865828381776 0  0.1584265193848371 0.1722214883490732 0  0.1646446609405956 0.1646446609407496 0  0.1722214883489481 0.1584265193849207 0  0.1808658283816641 0.1538060233744694 0  0.1902454838991403 0.150960735979849 0  0.09999999999980318 0 0  0.1999999999996354 0 0  0.2999999999994593 0 0  0.3999999999991452 0 0  0.4999999999988309 0 0  0.599999999998495 0 0  0.6999999999982023 0 0  0.7999999999979096 0 0  0.8999999999975735 0 0  0.9999999999972848 0 0  1.099999999997053 0 0  1.199999999997309 0 0  1.299999999997566 0 0  1.399999999997821 0 0  1.49999999999809 0 0  1.599999999998377 0 0  1.69999999999859 0 0  1.799999999998877 0 0  1.899999999999145 0 0  1.999999999999386 0 0  2.099999999999693 0 0  2.2 0.08199999999981657 0  2.2 0.1639999999995688 0  2.2 0.2459999999995603 0  2.2 0.327999999999785 0  2.100000000000048 0.41 0  2.000000000000269 0.41 0  1.900000000000422 0.41 0  1.800000000000679 0.41 0  1.700000000000931 0.41 0  1.600000000001326 0.41 0  1.500000000001665 0.41 0  1.400000000002032 0.41 0  1.300000000002395 0.41 0  1.200000000002644 0.41 0  1.100000000002865 0.41 0  1.000000000002617 0.41 0  0.900000000002368 0.41 0  0.8000000000021192 0.41 0  0.7000000000018587 0.41 0  0.6000000000015786 0.41 0  0.5000000000013736 0.41 0  0.4000000000010933 0.41 0  0.3000000000008329 0.41 0  0.2000000000005997 0.41 0  0.1000000000003003 0.41 0  0 0.3280000000001975 0  0 0.2460000000004372 0  0 0.1640000000004437 0  0 0.08200000000021695 0  0.439039350479032 0.2235433210862024 0  0.3557293424662716 0.1539377961885917 0  0.3450132387946972 0.2399891502764809 0  0.2900756359792848 0.08507884665974728 0  0.2884413411145515 0.3059878288466324 0  0.2102195502178943 0.3385267178242456 0  0.137328909169326 0.3152847369018352 0  0.08490385663776813 0.2628976192695439 0  0.08063302347471875 0.188368977740952 0  0.1005937615311739 0.1162460982751979 0  0.1621860847198582 0.08598327887900903 0  0.3012864586130264 0.1926027915888804 0  1.999140000000448 0.2049999999995642 0  0.2742354912953259 0.1572259708446958 0  0.2871471664627305 0.2264358039321654 0  0.6542851578645765 0.1981889790488746 0  0.2651366296338276 0.2534562504463119 0  0.2371819217149928 0.0977949043027586 0  1.651678197071202 0.2145186615851206 0  1.349674714201118 0.2086119645070391 0  0.9627539291831038 0.2056711800839285 0  0.2360880502985623 0.2733043913425156 0  1.159884231859056 0.2050429640239795 0  0.2502927927237266 0.1358797630898622 0  0.2080582834123368 0.2835355213895352 0  0.1805439632603489 0.278338480667804 0  0.1486243506827335 0.2626014098227327 0  0.1266658889266303 0.2392753516137401 0  0.1179814841582247 0.2069380844236527 0  0.1225167704961566 0.1764957192948648 0  0.1357996569043286 0.1472158045151807 0  0.1619764829264572 0.126298308975886 0  0.1935640279204225 0.116654032325456 0  1.82457000000085 0.2346439024393236 0  0.8027657238591595 0.149277802568535 0  1.498563450727992 0.2632867809910664 0  0.2770405925201826 0.1924926016722167 0  0.470924801584011 0.09138612536042019 0  0.550693598792917 0.2898604497866635 0  0.381089831438127 0.3238078833671811 0  2.074516462495042 0.125705772324225 0  2.083599037046577 0.2769549245607841 0  0.2692296340100125 0.2210592970306522 0  0.7614733075682367 0.2839235561638241 0  1.536698221979284 0.1258192462655419 0  1.231809489345021 0.1282542717942667 0  1.054759157670174 0.1242749934189342 0  1.754535566851005 0.1223197024158991 0  1.90452621597739 0.1324728094649104 0  0.2672409321155211 0.178737994598723 0  1.254401531996246 0.2902808614622134 0  1.04350934597445 0.2986664252663559 0  0.0749710792305778 0.3208721925318313 0  0.5425289614095572 0.165152457827861 0  0.1663208394680799 0.2644065126118989 0  0.1471335176887868 0.2433864007787126 0  0.1345556779484054 0.219852318055334 0  0.131940483167677 0.1932967226753857 0  0.1941574795820069 0.2685534232066453 0  0.2226696214021025 0.1252682734732412 0  0.2193882214552426 0.2661718674478616 0  0.1396865053227576 0.1677617654469802 0  0.8749487631478475 0.295170577255529 0  1.424301820545763 0.1157348858866879 0  1.918515045506933 0.2902236143624367 0  1.744876807925144 0.306628844405037 0  0.2443979144126529 0.254353837216211 0  0.2569054246570621 0.2306780201523878 0  0.2632507216716993 0.2062296523407826 0  0.4609453431326088 0.3138128990490959 0  0.3578015395476809 0.08253318517696946 0  0.2529777826635333 0.155582948480283 0  0.1580369715200277 0.1487041474358234 0  0.652872088668587 0.3101079993636056 0  0.297147332491062 0.2558065812325378 0  0.6188247313471635 0.1101603945467571 0  0.8951149554961688 0.1123812542864208 0  1.592749166085722 0.2985190085719691 0  1.40420309431358 0.2992155383468256 0  1.649189110727275 0.1000387439201274 0  0.2301663900864273 0.1432830242131801 0  0.2064839406544439 0.1345771465164309 0  0.2548204572493643 0.1702022465417566 0  0.1606700828011604 0.2481621709908606 0  0.2605987457303776 0.1928909671966518 0  0.1826942838524941 0.2594610608897559 0  0.1456438338561037 0.2290651013631561 0  0.1387681034994896 0.2058679665896095 0  1.140902260384949 0.3081952438204152 0  2.123402621966431 0.2039515281261525 0  0.7272188829630218 0.1047469619375249 0  0.2060868819369127 0.2616331638469837 0  0.246763614216289 0.2411610007697902 0  0.1405961691450822 0.1819800466423126 0  1.149638048863541 0.08264492713269313 0  0.1809997740285721 0.1365020267363126 0  1.993198408221569 0.09755938404998035 0  0.2287111352430851 0.2547015941619741 0  0.3818716699056283 0.2060398770290832 0  0.39147508084147 0.2656155699545688 0  0.151201080877373 0.1608659990301362 0  0.0542521118046473 0.1382221876243976 0  0.06190301158313444 0.0685934933767465 0  1.317316039400266 0.1015983144534349 0  0.2176417279723976 0.1415790407114221 0  0.2401571300978209 0.1529210337009423 0  0.2618092962776011 0.3566662607419938 0  0.1941527094396574 0.1377969918002053 0  0.9590486261329707 0.3255353063371385 0  0.1708201090411339 0.1447474051814825 0  1.837592370686806 0.3302992722413595 0  0.3197015570210796 0.1212159119695666 0  0.4155281956943757 0.1409543952531078 0  0.0549491513262805 0.2307535706287103 0  0.1668210562270142 0.3605647861782867 0  0.2854688902460447 0.2093700809023571 0  2.013251581901814 0.3292746985146142 0  0.1192191106244758 0.2809901915857802 0  0.2487958366614321 0.04556523514103697 0  0.09061021186838321 0.2240174335271237 0  1.737143840576958 0.20912817770623 0  0.04515017012776967 0.2784708690411318 0  0.5347554646753627 0.08988970780599832 0  0.977104673723579 0.08241628541188413 0  0.336509991617897 0.2888965225844298 0  0.2569238041969055 0.2173711314485607 0  1.906541186051535 0.2125389476829634 0  0.1762338839607841 0.3102437166134606 0  1.449268841077636 0.201011295143529 0  0.8555371485878378 0.2099663446585434 0  1.837208236203613 0.07556229833764837 0  1.264402545318887 0.1992523923163096 0  1.068181074047183 0.2155119107017876 0  0.3158931250274742 0.3421721218291775 0  0.2731958384900449 0.2373435058667565 0  0.09875906484220501 0.1533097574901186 0  0.7355755433976705 0.2066339904079041 0  1.567440499207928 0.2049999999995983 0  1.329829828222916 0.3295825481537897 0  0.8214190147401245 0.07894167681990104 0  1.525459989258997 0.3394220200696043 0  0.1990897327079506 0.06300531675246424 0  0.244701762210989 0.3062404318132603 0  0.1033853772622983 0.3551443431224104 0  0.1178236825374896 0.07148041782551597 0  0.1558198999929474 0.04409380269139784 0  0.3389178979413869 0.198678920661321 0  0.310790717645908 0.2196004930752872 0  2.125022007676643 0.3402049371791425 0  2.130028889485561 0.06535501282233655 0  0.4821161335597635 0.1626909543876269 0  0.2838678108956019 0.1254276466262967 0  0.5062815929260498 0.2376271077316994 0  1.663059277092996 0.3422301118688678 0  1.82292665764828 0.1574809263836269 0  2.052538557905295 0.05717536030732174 0  0.3078251537889645 0.16056368457456 0  0.8108267070172145 0.3390047366820738 0  1.487254632568403 0.0703866281621833 0  0.155004430757041 0.2369517702015699 0  0.1725545045705267 0.2519594403466565 0  0.1445581653510352 0.2167994984574706 0  0.1420710285613199 0.1942747855116325 0  1.461861739291679 0.3471998553985149 0  0.2372128969196007 0.2453440460936858 0  0.1943665918892754 0.2580518465884657 0  0.2452139232912363 0.1629124725160763 0  0.2555786751481889 0.1825885041235872 0  2.14640473333793 0.2790222779730848 0  2.145589594789407 0.1282024626544199 0  0.1486651579751984 0.1726583296292201 0  0.550000000001476 0.3603327897285098 0  0.0505668771231032 0.3660023622363767 0  1.049999999997169 0.05217028468202135 0  1.244771793631775 0.05744029386223062 0  0.1356759337238615 0.1094447816941579 0  0.5872326411628903 0.2223148728195226 0  0.2168458206248643 0.2558159203714847 0  1.749999999998732 0.05166028789524129 0  0.2855257256666041 0.1763246086558152 0  1.92
[...]
<PointData  Vectors="f_22"> 
<DataArray  type="Float64"  Name="f_22"  NumberOfComponents="3" format="ascii">0.0000000000000000e+00 0.0000000000000000e+00 0.0000000000000000e+00  0.0000000000000000e+00 0.0000000000000000e+00 0.0000000000000000e+00  0.0000000000000000e+00 0.0000000000000000e+00 0.0000000000000000e+00  0.0000000000000000e+00 0.0000000000000000e+00 0.0000000000000000e+00  0.0000000000000000e+00 0.0000000000000000e+00 0.0000000000000000e+00  0.0000000000000000e+00 0.0000000000000000e+00 0.0000000000000000e+00  0.0000000000000000e+00 0.0000000000000000e+00 0.0000000000000000e+00  0.0000000000000000e+00 0.0000000000000000e+00 0.0000000000000000e+00  0.0000000000000000e+00 0.0000000000000000e+00 0.0000000000000000e+00  0.0000000000000000e+00 0.0000000000000000e+00 0.0000000000000000e+00  0.0000000000000000e+00 0.0000000000000000e+00 0.0000000000000000e+00  0.0000000000000000e+00 0.0000000000000000e+00 0.0000000000000000e+00  0.0000000000000000e+00 0.0000000000000000e+00 0.0000000000000000e+00  0.0000000000000000e+00 0.0000000000000000e+00 0.0000000000000000e+00  0.0000000000000000e+00 0.0000000000000000e+00 0.0000000000000000e+00  0.0000000000000000e+00 0.0000000000000000e+00 0.0000000000000000e+00  0.0000000000000000e+00 0.0000000000000000e+00 0.0000000000000000e+00  0.0000000000000000e+00 0.0000000000000000e+00 0.0000000000000000e+00  0.0000000000000000e+00 0.0000000000000000e+00 0.0000000000000000e+00  0.0000000000000000e+00 0.0000000000000000e+00 0.0000000000000000e+00  0.0000000000000000e+00 0.0000000000000000e+00 0.0000000000000000e+00  0.0000000000000000e+00 0.0000000000000000e+00 0.0000000000000000e+00  0.0000000000000000e+00 0.0000000000000000e+00 0.0000000000000000e+00  0.0000000000000000e+00 0.0000000000000000e+00 0.0000000000000000e+00  0.0000000000000000e+00 0.0000000000000000e+00 0.0000000000000000e+00  0.0000000000000000e+00 0.0000000000000000e+00 0.0000000000000000e+00  0.0000000000000000e+00 0.0000000000000000e+00 0.0000000000000000e+00  0.0000000000000000e+00 0.0000000000000000e+00 0.0000000000000000e+00  0.0000000000000000e+00 0.0000000000000000e+00 0.0000000000000000e+00  0.0000000000000000e+00 0.0000000000000000e+00 0.0000000000000000e+00  0.0000000000000000e+00 0.0000000000000000e+00 0.0000000000000000e+00  0.0000000000000000e+00 0.0000000000000000e+00 0.0000000000000000e+00  0.0000000000000000e+00 0.0000000000000000e+00 0.0000000000000000e+00  0.0000000000000000e+00 0.0000000000000000e+00 0.0000000000000000e+00  0.0000000000000000e+00 0.0000000000000000e+00 0.0000000000000000e+00  0.0000000000000000e+00 0.0000000000000000e+00 0.0000000000000000e+00  0.0000000000000000e+00 0.0000000000000000e+00 0.0000000000000000e+00  0.0000000000000000e+00 0.0000000000000000e+00 0.0000000000000000e+00  0.0000000000000000e+00 0.0000000000000000e+00 0.0000000000000000e+00  0.0000000000000000e+00 0.0000000000000000e+00 0.0000000000000000e+00  0.0000000000000000e+00 0.0000000000000000e+00 0.0000000000000000e+00  0.0000000000000000e+00 0.0000000000000000e+00 0.0000000000000000e+00  0.0000000000000000e+00 0.0000000000000000e+00 0.0000000000000000e+00  0.0000000000000000e+00 0.0000000000000000e+00 0.0000000000000000e+00  0.0000000000000000e+00 0.0000000000000000e+00 0.0000000000000000e+00  0.0000000000000000e+00 0.0000000000000000e+00 0.0000000000000000e+00  0.0000000000000000e+00 0.0000000000000000e+00 0.0000000000000000e+00  0.0000000000000000e+00 0.0000000000000000e+00 0.0000000000000000e+00  0.0000000000000000e+00 0.0000000000000000e+00 0.0000000000000000e+00  0.0000000000000000e+00 0.0000000000000000e+00 0.0000000000000000e+00  0.0000000000000000e+00 0.0000000000000000e+00 0.0000000000000000e+00  0.0000000000000000e+00 0.0000000000000000e+00 0.0000000000000000e+00  0.0000000000000000e+00 0.0000000000000000e+00 0.0000000000000000e+00  0.0000000000000000e+00 0.0000000000000000e+00 0.0000000000000000e+00  0.0000000000000000e+00 0.0000000000000000e+00 0.0000000000000000e+00  0.0000000000000000e+00 0.0000000000000000e+00 0.0000000000000000e+00  0.0000000000000000e+00 0.0000000000000000e+00 0.0000000000000000e+00  8.4423539038530193e-01 -1.6375814213005430e-01 0.0000000000000000e+00  1.3725370597895632e+00 -2.4996623348380761e-01 0.0000000000000000e+00  1.5853022000096506e+00 -2.1070200615110102e-01 0.0000000000000000e+00  9.6471965961166506e-01 -1.0438045257288042e-01 0.0000000000000000e+00  0.0000000000000000e+00 0.0000000000000000e+00 0.0000000000000000e+00  0.0000000000000000e+00 0.0000000000000000e+00 0.0000000000000000e+00  0.0000000000000000e+00 0.0000000000000000e+00 0.0000000000000000e+00  0.0000000000000000e+00 0.0000000000000000e+00 0.0000000000000000e+00  0.0000000000000000e+00 0.0000000000000000e+00 0.0000000000000000e+00  0.0000000000000000e+00 0.0000000000000000e+00 0.0000000000000000e+00  0.0000000000000000e+00 0.0000000000000000e+00 0.0000000000000000e+00  0.0000000000000000e+00 0.0000000000000000e+00 0.0000000000000000e+00  0.0000000000000000e+00 0.0000000000000000e+00 0.0000000000000000e+00  0.0000000000000000e+00 0.0000000000000000e+00 0.0000000000000000e+00  0.0000000000000000e+00 0.0000000000000000e+00 0.0000000000000000e+00  0.0000000000000000e+00 0.0000000000000000e+00 0.0000000000000000e+00  0.0000000000000000e+00 0.0000000000000000e+00 0.0000000000000000e+00  0.0000000000000000e+00 0.0000000000000000e+00 0.0000000000000000e+00  0.0000000000000000e+00 0.0000000000000000e+00 0.0000000000000000e+00  0.0000000000000000e+00 0.0000000000000000e+00 0.0000000000000000e+00  0.0000000000000000e+00 0.0000000000000000e+00 0.0000000000000000e+00  0.0000000000000000e+00 0.0000000000000000e+00 0.0000000000000000e+00  0.0000000000000000e+00 0.0000000000000000e+00 0.0000000000000000e+00  0.0000000000000000e+00 0.0000000000000000e+00 0.0000000000000000e+00  0.0000000000000000e+00 0.0000000000000000e+00 0.0000000000000000e+00  9.6000005339501682e-01 0.0000000000000000e+00 0.0000000000000000e+00  1.4400000800938477e+00 0.0000000000000000e+00 0.0000000000000000e+00  1.4400000800964257e+00 0.0000000000000000e+00 0.0000000000000000e+00  9.6000005339865635e-01 0.0000000000000000e+00 0.0000000000000000e+00  1.8255122437004750e-01 -2.5105379019975210e-02 0.0000000000000000e+00  7.2566412439197603e-01 -2.7342362428450684e-01 0.0000000000000000e+00  6.6527803805936481e-01 -6.8946136051365003e-01 0.0000000000000000e+00  1.8068590306894874e+00 -3.9010863206528329e-02 0.0000000000000000e+00  1.8912959727357543e+00 -1.3561590966932008e-01 0.0000000000000000e+00  1.4542024168761334e+00 1.5005811102767752e-01 0.0000000000000000e+00  1.3368163396213886e+00 3.4687274605771856e-01 0.0000000000000000e+00  1.3436368838129960e+00 2.8374967263635736e-01 0.0000000000000000e+00  1.3058695409979053e+00 -3.7099298015790295e-02 0.0000000000000000e+00  1.2519241772572263e+00 -2.9692996986332648e-01 0.0000000000000000e+00  1.3827396296644145e+00 -3.5861973811066183e-01 0.0000000000000000e+00  -3.8924005283522667e-01 -9.7503366385618934e-02 0.0000000000000000e+00  1.5900031345430732e+00 2.4337416223835437e-01 0.0000000000000000e+00  -7.4032228810828266e-03 -3.5122808844258266e-02 0.0000000000000000e+00  1.7760704536676945e-02 1.8149232502802387e-01 0.0000000000000000e+00  1.4971987274925442e+00 -9.4238015018390631e-01 0.0000000000000000e+00  5.7955234455353200e-01 5.3238831032656857e-02 0.0000000000000000e+00  1.8551395306095015e+00 -2.2020774659998393e-01 0.0000000000000000e+00  1.6273721233913883e+00 4.6789242118630808e-01 0.0000000000000000e+00  1.5863473518995326e+00 1.7342707842351004e-01 0.0000000000000000e+00  1.5244867133746747e+00 1.7399222655423921e-01 0.0000000000000000e+00  1.9689874041931212e+00 1.1020040574438315e-01 0.0000000000000000e+00  1.4831917570447368e+00 -1.4015752501554987e-01 0.0000000000000000e+00  9.1384200243205715e-01 -3.5462173172465840e-02 0.0000000000000000e+00  2.0761631659581892e+00 3.5986185113333091e-01 0.0000000000000000e+00  1.9362368626384787e+00 6.1713894919546808e-01 0.0000000000000000e+00  1.5409599288222182e+00 7.9482736556234923e-01 0.0000000000000000e+00  1.1720900673821488e+00 5.9995954647609295e-01 0.0000000000000000e+00  9.4585175037874336e-01 1.5125899859170386e-01 0.0000000000000000e+00  9.7678527326927111e-01 -3.5472157692956996e-01 0.0000000000000000e+00  1.2725618803184349e+00 -6.6603223438293513e-01 0.0000000000000000e+00  1.6252386696043704e+00 -6.9715893485349290e-01 0.0000000000000000e+00  1.8834096753806175e+00 -5.1553731229658106e-01 0.0000000000000000e+00  1.6409108678002198e+00 -3.8643015609914161e-01 0.0000000000000000e+00  1.5923615849322825e+00 9.4499388242745910e-02 0.0000000000000000e+00  1.4187425534753697e+00 -3.6104951415799902e-01 0.0000000000000000e+00  -2.0129341272922399e-01 8.1125920556497186e-02 0.0000000000000000e+00  1.4279897703214026e+00 4.4633342178034585e-01 0.0000000000000000e+00  1.7537277714730881e+00 2.4756963339724256e-02 0.0000000000000000e+00  1.3786272608564871e+00 -1.7624114680208364e-01 0.0000000000000000e+00  1.2302149149892412e+00 1.9411834573100678e-01 0.0000000000000000e+00  1.3122017770319423e+00 1.7736071837892617e-01 0.0000000000000000e+00  -6.5361773141222684e-02 2.9044388515765268e-01 0.0000000000000000e+00  9.1903627302811619e-01 -3.0230162808653110e-01 0.0000000000000000e+00  1.3622467520799100e+00 -1.0864394867300473e-01 0.0000000000000000e+00  1.3728883885497831e+00 3.5245722622696946e-01 0.0000000000000000e+00  1.0326987484180996e+00 -5.7521387045187233e-01 0.0000000000000000e+00  1.0002328381876093e+00 -8.5503258765105325e-02 0.0000000000000000e+00  1.3474771068532414e+00 -2.2032607403915996e-01 0.0000000000000000e+00  -9.8892756505609650e-02 1.4826616164970814e-02 0.0000000000000000e+00  1.1745742963127099e+00 4.7839891742117296e-01 0.0000000000000000e+00  1.2756241506592707e+00 -2.4509836122579348e-01 0.0000000000000000e+00  1.0852351278230838e+00 1.8060924684019644e-01 0.0000000000000000e+00  1.1706927520853996e+00 5.4277424906630900e-01 0.0000000000000000e+00  1.8127949903843343e+00 8.6647364731166021e-01 0.0000000000000000e+00  1.2769898617755435e+00 9.8424753728393610e-01 0.0000000000000000e+00  7.7786817029340605e-01 5.6298155539273598e-01 0.0000000000000000e+00  6.4351470213236051e-01 -1.4599288365476634e-01 0.0000000000000000e+00  2.1334844966033164e+00 5.6395325693647247e-01 0.0000000000000000e+00  1.9056090730017725e+00 -2.9142682622002036e-01 0.0000000000000000e+00  1.7398618418059275e+00 1.6005362405264711e-01 0.0000000000000000e+00  9.4839387385921969e-01 -7.5746129274076723e-01 0.0000000000000000e+00  9.5269678903371380e-01 6.0634738194169113e-01 0.0000000000000000e+00  9.6819496218747503e-01 -3.8093384393881780e-01 0.0000000000000000e+00  1.0419855777671314e+00 -6.8338975187217044e-02 0.0000000000000000e+00  1.2856795509493328e+00 -3.9952453401870605e-02 0.0000000000000000e+00  4.6232935415962850e-01 2.0091066502651800e-02 0.0000000000000000e+00  -4.2130410550830229e-02 2.6804234409155270e-01 0.0000000000000000e+00  -8.7051650975170411e-02 2.6424396918887438e-01 0.0000000000000000e+00  1.3931909694110880e+00 1.2677553533999247e-01 0.0000000000000000e+00  1.8123416681604290e+00 1.6107456441423448e-01 0.0000000000000000e+00  -2.8659179427214687e-02 -7.0127345228741707e-03 0.0000000000000000e+00  1.4864231082723049e+00 -1.0149677522259817e+00 0.0000000000000000e+00  1.3411851264169521e+00 -3.2864252163581620e-01 0.0000000000000000e+00  1.0550446848626116e+00 -1.4106046732044075e-01 0.0000000000000000e+00  6.0779989309839211e-01 -5.9211519908163521e-02 0.0000000000000000e+00  1.0389594328818839e+00 2.7781763140151788e-01 0.0000000000000000e+00  9.6569928666371829e-01 2.3424698251906442e-01 0.0000000000000000e+00  1.3804313779051292e+00 -3.0338397347985341e-01 0.0000000000000000e+00  1.0013733334159818e+00 2.6853303920376853e-01 0.0000000000000000e+00  4.3557159859238553e-01 -2.8938482597613065e-02 0.0000000000000000e+00  1.6929292159243730e+00 -3.3562021122092045e-01 0.0000000000000000e+00  -4.8044633383489264e-02 1.3619800196187590e-02 0.0000000000000000e+00  1.5738870677635250e+00 1.1526036315295891e+00 0.0000000000000000e+00  -5.0656415299225141e-02 1.6101929974210372e-01 0.0000000000000000e+00  2.0009767957785805e+00 7.8094341984314664e-01 0.0000000000000000e+00  8.7269589394401526e-01 9.7461818669788025e-01 0.0000000000000000e+00  4.3684764193939335e-01 2.5376368436192792e-01 0.0000000000000000e+00  8.5734527533223326e-01 -3.3977973501785724e-01 0.0000000000000000e+00  1.6519770922867689e+00 1.2047546387841854e-01 0.0000000000000000e+00  1.2013726762418722e+00 -1.9804898207813981e-01 0.0000000000000000e+00  1.5997307404975005e+00 2.3149152091594197e-01 0.0000000000000000e+00  -1.8987579671132255e-02 1.2607652540769332e-01 0.0000000000000000e+00  5.8352533731719747e-01 -5.8091512210134189e-01 0.0000000000000000e+00  1.2412481803396944e+00 3.8121403225106119e-02 0.0000000000000000e+00  1.9143128809578003e+00 -7.8583805763008618e-01 0.0000000000000000e+00  1.1537636128019777e+00 1.7334489691352808e-01 0.0000000000000000e+00  4.5317446961324170e-01 -1.8334318338667459e-04 0.0000000000000000e+00  -3.2515450781079885e-01 -8.9446156077014238e-01 0.0000000000000000e+00  1.1688912783379684e+00 -4.7037582168997277e-01 0.0000000000000000e+00  1.1403439714095525e+00 -1.0516916868069393e+00 0.0000000000000000e+00  1.3163688746606557e+00 -1.1280886964845292e-01 0.0000000000000000e+00  8.7785506776431044e-01 -9.8171102856903489e-02 0.0000000000000000e+00  8.4068908675631104e-01 3.1146819369601908e-01 0.0000000000000000e+00  7.0765073701616454e-01 -5.6810575362642453e-02 0.0000000000000000e+00  4.3573404680536344e-03 -2.8928089113355263e-02 0.0000000000000000e+00  1.3113568070559392e+00 -1.3667781956254569e-02 0.0000000000000000e+00  1.7708877408043620e+00 -5.0669142299956926e-01 0.0000000000000000e+00  1.3206902686542736e+00 -6.1189981849431078e-02 0.0000000000000000e+00  1.7425430133581752e+00 -9.8023508644839219e-01 0.0000000000000000e+00  8.6519564243732039e-01 -1.6104356221126565e-01 0.0000000000000000e+00  1.6502929611900465e+00 -2.7274067311389145e-03 0.0000000000000000e+00  1.8211750142098284e+00 5.0285084121911550e-01 0.0000000000000000e+00  1.4175073257443187e+00 1.1105964528674095e-01 0.0000000000000000e+00  1.0333450593495495e+00 1.4155191236423206e-01 0.0000000000000000e+00  -2.1430751301289586e-01 1.5818998007922008e-01 0.0000000000000000e+00  7.9562032674433913e-01 1.1834797264087925e-01 0.0000000000000000e+00  1.3877257864307939e+00 4.5194611485753283e-01 0.0000000000000000e+00  1.2873419899950771e+00 -6.4109506050554196e-02 0.0000000000000000e+00  1.2790465195908149e+00 2.0144685853380201e-01 0.0000000000000000e+00  1.6457372815241158e+00 8.8082121149027442e-02 0.0000000000000000e+00  1.3070442175328383e+00 1.2941565086704593e-01 0.0000000000000000e+00  1.0239396263346037e+00 1.4597460068281426e-01 0.0000000000000000e+00  4.6126000975360282e-01 1.1810453545290597e-01 0.0000000000000000e+00  1.8199637471598098e+00 -4.1996571953374634e-01 0.0000000000000000e+00  -7.2620102478871670e-02 2.9689555618166291e-01 0.0000000000000000e+00  1.6504847330232801e+00 -2.7021614018908546e-01 0.0000000000000000e+00  1.6107587475470559e+00 3.7123760790330990e-01 0.0000000000000000e+00  1.6093807253832377e+00 -5.3434306840531298e-01 0.0000000000000000e+00  1.6929150292972979e+00 8.0209515989880720e-01 0.0000000000000000e+00  7.6743741761294337e-01 -1.6098591279997937e-01 0.0000000000000000e+00  1.6213812096360614e+00 5.4331263042511801e-01 0.0000000000000000e+00  1.6472564217655623e+00 -5.8629435264489249e-01 0.0000000000000000e+00  1.4327467853409777e+00 -1.3600999992085178e-01 0.0000000000000000e+00  1.5618994053012977e-01 2.1017079071926165e-01 0.0000000000000000e+00  1.2609988862254908e+00 -2.8330990552653651e-01 0.0000000000000000e+00  1.4552030747340901e+00 -4.2434937679468909e-01 0.0000000000000000e+00  1.5563665602305869e+00 5.5732118874262777e-02 0.0000000000000000e+00  1.1426336883912049e+00 1.0504506828344155e-01 0.0000000000000000e+00  1.0649442366716535e+00 1.0265587160169919e-01 0.0000000000000000e+00  5.5262846817061673e-01 -5.6244481951445810e-02 0.0000000000000000e+00  1.3367817184462292e+00 -2.0517545899723316e-01 0.0000000000000000e+00  1.9018450524343282e+00 7.9733836768906524e-02 0.0000000000000000e+00  8.5459897644768112e-01 1.4131365495343190e-01 0.0000000000000000e+00  1.0424680302554781e+00 -2.2046367302757711e-01 0.0000000000000000e+00  9.2289432163766616e-01 -1.4669237230702439e-01 0.0000000000000000e+00  -5.2974202661695846e-01 -5.8984321675633111e-01 0.0000000000000000e+00  -1.3118100538791266e-01 -9.5476587404589350e-02 0.0000000000000000e+00  9.1358540318358694e-01 -1.8847552170319731e-02 0.0000000000000000e+00  6.0812241584458460e-01 -4.6621731335431460e-02 0.0000000000000000e+00  1.5500060874527437e+00 9.6803867502206131e-01 0.0000000000000000e+00  1.4659046280860828e+00 -2.5704276805016978e-02 0.0000000000000000e+00  8.5936606705697116e-01 7.1220160188720172e-01 0.0000000000000000e+00  8.2655667197501148e-01 1.3607038399565732e-01 0.0000000000000000e+00  1.3902770143672873e+00 -3.3274312038449583e-01 0.0000000000000000e+00  6.0031394142983974e-01 7.2708803296128985e-02 0.0000000000000000e+00  7.4934485326912270e-02 -2.0459473397425643e-01 0.0000000000000000e+00  5.6959810418696499e-01 4.7018275069904976e-02 0.0000000000000000e+00  8.9353327653353409e-01 -1.5381978538785099e-01 0.0000000000000000e+00  1.1391196269718478e+00 1.1839771472642424e+00 0.0000000000000000e+00  1.7539977823917650e+00 9.9269485378814137e-01 0.0000000000000000e+00  4.6904697166063120e-01 7.0577965844154289e-01 0.0000000000000000e+00  3.0137215201472778e-01 -1.9686900458166465e-01 0.0000000000000000e+00  6.9222637973573664e-01 -1.6488507053500032e-01 0.0000000000000000e+00  2.8398359093795515e-03 4.9426932960477205e-02 0.0000000000000000e+00  1.5711906708477974e+00 3.7900634210378048e-01 0.0000000000000000e+00  -4.9908745301526558e-02 -1.4737391185887978e-02 0.0000000000000000e+00  -1.3186922383989896e-02 8.2834717523792470e-02 0.0000000000000000e+00  1.4146147425552564e+00 9.9585793355967830e-04 0.0000000000000000e+00  1.1372722004457589e+00 -1.1101848423771904e-01 0.0000000000000000e+00  7.2515941619640800e-01 -9.4637569057830218e-01 0.0000000000000000e+00  1.0280388923527486e+00 -6.1814722844796714e-02 0.0000000000000000e+00  6.1419982583955912e-01 5.6536268161079414e-02 0.0000000000000000e+00  5.9690073849903524e-01 -1.4999322606629681e-01 0.0000000000000000e+00  7.4319781632770610e-01 1.2066023767319693e-01 0.0000000000000000e+00  1.3611213445150063e+00 -4.4649842829041975e-01 0.0000000000000000e+00  1.2715091038060202e+00 3.5006341888228515e-01 0.0000000000000000e+00  6.1941442612621678e-01 7.5216942170736514e-03 0.0000000000000000e+00  4.4939348927313871e-01 -2.3162794644296322e-02 0.0000000000000000e+00  -1.8209022906939359e-01 -7.2652994562995621e-02 0.0000000000000000e+00  8.9948662371767529e-01 1.3625668897261833e-02 0.0000000000000000e+00  1.2463818431699276e+00 2.6185451285522482e-01 0.0000000000000000e+00  8.6429852115071082e-01 4.2104202878008791e-02 0.0000000000000000e+00  2.0391424527897524e+00 -2.2965474672424296e-02 0.0000000000000000e+00  1.4590112509702118e+00 5.6599661237241999e-03 0.0000000000000000e+00  1.6172944649636400e+00 5.8023433078391784e-01 0.0000000000000000e+00  7.1929208018092938e-01 2.1844782270392171e-02 0.0000000000000000e+00  1.4236711720983424e+00 3.4373745858991867e-01 0.0000000000000000e+00  1.6582173080368525e+00 3.7428615373565827e-01 0.0000000000000000e+00  1.5195925895061981e+00 4.5853924433425952e-01 0.0000000000000000e+00  1.4750639807330619e+00 5.0439609980506910e-04 0.0000000000000000e+00  9.2815244912384909e-01 2.0417335880733470e-01 0.0000000000000000e+00  1.3570391865128888e+00 2.2391946094578877e-01 0.0000000000000000e+00  1.4585217394492949e+00 -7.9647691657765210e-02 0.0000000000000000e+00  1.5616218051165984e+00 2.6098057277747672e-01 0.0000000000000000e+00  1.0279078963293331e+00 -4.8546322157345806e-01 0.0000000000000000e+00  1.4678524394098755e+00 -6.9004722427