<?xml version="1.0"?>
<VTKFile type="UnstructuredGrid"  version="0.1"  >
<UnstructuredGrid>
<Piece  NumberOfPoints="3852" NumberOfCells="7360">
<Points>
<DataArray  type="Float64"  NumberOfComponents="3"  format="ascii">0 0 0  0 0.41 0  2.2 0.41 0  2.2 0 0  0.2 0.15 0  0.15 0.2 0  0.2 0.25 0  0.25 0.2 0  0.2097545161007899 0.1509607359798352 0  0.219134171618224 0.153806023374423 0  0.2277785116509268 0.1584265193848371 0  0.2353553390592504 0.1646446609405956 0  0.2415734806150793 0.1722214883489481 0  0.2461939766255306 0.1808658283816641 0  0.249039264020151 0.1902454838991403 0  0.2490392640201666 0.2097545161007811 0  0.2461939766255869 0.2191341716182 0  0.2415734806151802 0.2277785116509009 0  0.2353553390594108 0.235355339059244 0  0.2277785116510524 0.2415734806150789 0  0.2191341716182962 0.2461939766255471 0  0.209754516100834 0.2490392640201561 0  0.1902454838992189 0.2490392640201666 0  0.1808658283818 0.2461939766255869 0  0.1722214883490991 0.2415734806151802 0  0.164644660940756 0.2353553390594108 0  0.1584265193849211 0.2277785116510524 0  0.1538060233744529 0.2191341716182962 0  0.150960735979844 0.209754516100834 0  0.1509607359798352 0.1902454838992101 0  0.153806023374423 0.180865828381776 0  0.1584265193848371 0.1722214883490732 0  0.1646446609405956 0.1646446609407496 0  0.1722214883489481 0.1584265193849207 0  0.1808658283816641 0.1538060233744694 0  0.1902454838991403 0.150960735979849 0  0.09999999999980318 0 0  0.1999999999996354 0 0  0.2999999999994593 0 0  0.3999999999991452 0 0  0.4999999999988309 0 0  0.599999999998495 0 0  0.6999999999982023 0 0  0.7999999999979096 0 0  0.8999999999975735 0 0  0.9999999999972848 0 0  1.099999999997053 0 0  1.199999999997309 0 0  1.299999999997566 0 0  1.399999999997821 0 0  1.49999999999809 0 0  1.599999999998377 0 0  1.69999999999859 0 0  1.799999999998877 0 0  1.899999999999145 0 0  1.999999999999386 0 0  2.099999999999693 0 0  2.2 0.08199999999981657 0  2.2 0.1639999999995688 0  2.2 0.2459999999995603 0  2.2 0.327999999999785 0  2.100000000000048 0.41 0  2.000000000000269 0.41 0  1.900000000000422 0.41 0  1.800000000000679 0.41 0  1.700000000000931 0.41 0  1.600000000001326 0.41 0  1.500000000001665 0.41 0  1.400000000002032 0.41 0  1.300000000002395 0.41 0  1.200000000002644 0.41 0  1.100000000002865 0.41 0  1.000000000002617 0.41 0  0.900000000002368 0.41 0  0.8000000000021192 0.41 0  0.7000000000018587 0.41 0  0.6000000000015786 0.41 0  0.5000000000013736 0.41 0  0.4000000000010933 0.41 0  0.3000000000008329 0.41 0  0.2000000000005997 0.41 0  0.1000000000003003 0.41 0  0 0.3280000000001975 0  0 0.2460000000004372 0  0 0.1640000000004437 0  0 0.08200000000021695 0  0.439039350479032 0.2235433210862024 0  0.3557293424662716 0.1539377961885917 0  0.3450132387946972 0.2399891502764809 0  0.2900756359792848 0.08507884665974728 0  0.2884413411145515 0.3059878288466324 0  0.2102195502178943 0.3385267178242456 0  0.137328909169326 0.3152847369018352 0  0.08490385663776813 0.2628976192695439 0  0.08063302347471875 0.188368977740952 0  0.1005937615311739 0.1162460982751979 0  0.1621860847198582 0.08598327887900903 0  0.3012864586130264 0.1926027915888804 0  1.999140000000448 0.2049999999995642 0  0.2742354912953259 0.1572259708446958 0  0.2871471664627305 0.2264358039321654 0  0.6542851578645765 0.1981889790488746 0  0.2651366296338276 0.2534562504463119 0  0.2371819217149928 0.0977949043027586 0  1.651678197071202 0.2145186615851206 0  1.349674714201118 0.2086119645070391 0  0.9627539291831038 0.2056711800839285 0  0.2360880502985623 0.2733043913425156 0  1.159884231859056 0.2050429640239795 0  0.2502927927237266 0.1358797630898622 0  0.2080582834123368 0.2835355213895352 0  0.1805439632603489 0.278338480667804 0  0.1486243506827335 0.2626014098227327 0  0.1266658889266303 0.2392753516137401 0  0.1179814841582247 0.2069380844236527 0  0.1225167704961566 0.1764957192948648 0  0.1357996569043286 0.1472158045151807 0  0.1619764829264572 0.126298308975886 0  0.1935640279204225 0.116654032325456 0  1.82457000000085 0.2346439024393236 0  0.8027657238591595 0.149277802568535 0  1.498563450727992 0.2632867809910664 0  0.2770405925201826 0.1924926016722167 0  0.470924801584011 0.09138612536042019 0  0.550693598792917 0.2898604497866635 0  0.381089831438127 0.3238078833671811 0  2.074516462495042 0.125705772324225 0  2.083599037046577 0.2769549245607841 0  0.2692296340100125 0.2210592970306522 0  0.7614733075682367 0.2839235561638241 0  1.536698221979284 0.1258192462655419 0  1.231809489345021 0.1282542717942667 0  1.054759157670174 0.1242749934189342 0  1.754535566851005 0.1223197024158991 0  1.90452621597739 0.1324728094649104 0  0.2672409321155211 0.178737994598723 0  1.254401531996246 0.2902808614622134 0  1.04350934597445 0.2986664252663559 0  0.0749710792305778 0.3208721925318313 0  0.5425289614095572 0.165152457827861 0  0.1663208394680799 0.2644065126118989 0  0.1471335176887868 0.2433864007787126 0  0.1345556779484054 0.219852318055334 0  0.131940483167677 0.1932967226753857 0  0.1941574795820069 0.2685534232066453 0  0.2226696214021025 0.1252682734732412 0  0.2193882214552426 0.2661718674478616 0  0.1396865053227576 0.1677617654469802 0  0.8749487631478475 0.295170577255529 0  1.424301820545763 0.1157348858866879 0  1.918515045506933 0.2902236143624367 0  1.744876807925144 0.306628844405037 0  0.2443979144126529 0.254353837216211 0  0.2569054246570621 0.2306780201523878 0  0.2632507216716993 0.2062296523407826 0  0.4609453431326088 0.3138128990490959 0  0.3578015395476809 0.08253318517696946 0  0.2529777826635333 0.155582948480283 0  0.1580369715200277 0.1487041474358234 0  0.652872088668587 0.3101079993636056 0  0.297147332491062 0.2558065812325378 0  0.6188247313471635 0.1101603945467571 0  0.8951149554961688 0.1123812542864208 0  1.592749166085722 0.2985190085719691 0  1.40420309431358 0.2992155383468256 0  1.649189110727275 0.1000387439201274 0  0.2301663900864273 0.1432830242131801 0  0.2064839406544439 0.1345771465164309 0  0.2548204572493643 0.1702022465417566 0  0.1606700828011604 0.2481621709908606 0  0.2605987457303776 0.1928909671966518 0  0.1826942838524941 0.2594610608897559 0  0.1456438338561037 0.2290651013631561 0  0.1387681034994896 0.2058679665896095 0  1.140902260384949 0.3081952438204152 0  2.123402621966431 0.2039515281261525 0  0.7272188829630218 0.1047469619375249 0  0.2060868819369127 0.2616331638469837 0  0.246763614216289 0.2411610007697902 0  0.1405961691450822 0.1819800466423126 0  1.149638048863541 0.08264492713269313 0  0.1809997740285721 0.1365020267363126 0  1.993198408221569 0.09755938404998035 0  0.2287111352430851 0.2547015941619741 0  0.3818716699056283 0.2060398770290832 0  0.39147508084147 0.2656155699545688 0  0.151201080877373 0.1608659990301362 0  0.0542521118046473 0.1382221876243976 0  0.06190301158313444 0.0685934933767465 0  1.317316039400266 0.1015983144534349 0  0.2176417279723976 0.1415790407114221 0  0.2401571300978209 0.1529210337009423 0  0.2618092962776011 0.3566662607419938 0  0.1941527094396574 0.1377969918002053 0  0.9590486261329707 0.3255353063371385 0  0.1708201090411339 0.1447474051814825 0  1.837592370686806 0.3302992722413595 0  0.3197015570210796 0.1212159119695666 0  0.4155281956943757 0.1409543952531078 0  0.0549491513262805 0.2307535706287103 0  0.1668210562270142 0.3605647861782867 0  0.2854688902460447 0.2093700809023571 0  2.013251581901814 0.3292746985146142 0  0.1192191106244758 0.2809901915857802 0  0.2487958366614321 0.04556523514103697 0  0.09061021186838321 0.2240174335271237 0  1.737143840576958 0.20912817770623 0  0.04515017012776967 0.2784708690411318 0  0.5347554646753627 0.08988970780599832 0  0.977104673723579 0.08241628541188413 0  0.336509991617897 0.2888965225844298 0  0.2569238041969055 0.2173711314485607 0  1.906541186051535 0.2125389476829634 0  0.1762338839607841 0.3102437166134606 0  1.449268841077636 0.201011295143529 0  0.8555371485878378 0.2099663446585434 0  1.837208236203613 0.07556229833764837 0  1.264402545318887 0.1992523923163096 0  1.068181074047183 0.2155119107017876 0  0.3158931250274742 0.3421721218291775 0  0.2731958384900449 0.2373435058667565 0  0.09875906484220501 0.1533097574901186 0  0.7355755433976705 0.2066339904079041 0  1.567440499207928 0.2049999999995983 0  1.329829828222916 0.3295825481537897 0  0.8214190147401245 0.07894167681990104 0  1.525459989258997 0.3394220200696043 0  0.1990897327079506 0.06300531675246424 0  0.244701762210989 0.3062404318132603 0  0.1033853772622983 0.3551443431224104 0  0.1178236825374896 0.07148041782551597 0  0.1558198999929474 0.04409380269139784 0  0.3389178979413869 0.198678920661321 0  0.310790717645908 0.2196004930752872 0  2.125022007676643 0.3402049371791425 0  2.130028889485561 0.06535501282233655 0  0.4821161335597635 0.1626909543876269 0  0.2838678108956019 0.1254276466262967 0  0.5062815929260498 0.2376271077316994 0  1.663059277092996 0.3422301118688678 0  1.82292665764828 0.1574809263836269 0  2.052538557905295 0.05717536030732174 0  0.3078251537889645 0.16056368457456 0  0.8108267070172145 0.3390047366820738 0  1.487254632568403 0.0703866281621833 0  0.155004430757041 0.2369517702015699 0  0.1725545045705267 0.2519594403466565 0  0.1445581653510352 0.2167994984574706 0  0.1420710285613199 0.1942747855116325 0  1.461861739291679 0.3471998553985149 0  0.2372128969196007 0.2453440460936858 0  0.1943665918892754 0.2580518465884657 0  0.2452139232912363 0.1629124725160763 0  0.2555786751481889 0.1825885041235872 0  2.14640473333793 0.2790222779730848 0  2.145589594789407 0.1282024626544199 0  0.1486651579751984 0.1726583296292201 0  0.550000000001476 0.3603327897285098 0  0.0505668771231032 0.3660023622363767 0  1.049999999997169 0.05217028468202135 0  1.244771793631775 0.05744029386223062 0  0.1356759337238615 0.1094447816941579 0  0.5872326411628903 0.2223148728195226 0  0.2168458206248643 0.2558159203714847 0  1.749999999998732 0.05166028789524129 0  0.2855257256666041 0.1763246086558152 0  1.92
[...]
<PointData  Vectors="f_22"> 
<DataArray  type="Float64"  Name="f_22"  NumberOfComponents="3" format="ascii">0.0000000000000000e+00 0.0000000000000000e+00 0.0000000000000000e+00  0.0000000000000000e+00 0.0000000000000000e+00 0.0000000000000000e+00  0.0000000000000000e+00 0.0000000000000000e+00 0.0000000000000000e+00  0.0000000000000000e+00 0.0000000000000000e+00 0.0000000000000000e+00  0.0000000000000000e+00 0.0000000000000000e+00 0.0000000000000000e+00  0.0000000000000000e+00 0.0000000000000000e+00 0.0000000000000000e+00  0.0000000000000000e+00 0.0000000000000000e+00 0.0000000000000000e+00  0.0000000000000000e+00 0.0000000000000000e+00 0.0000000000000000e+00  0.0000000000000000e+00 0.0000000000000000e+00 0.0000000000000000e+00  0.0000000000000000e+00 0.0000000000000000e+00 0.0000000000000000e+00  0.0000000000000000e+00 0.0000000000000000e+00 0.0000000000000000e+00  0.0000000000000000e+00 0.0000000000000000e+00 0.0000000000000000e+00  0.0000000000000000e+00 0.0000000000000000e+00 0.0000000000000000e+00  0.0000000000000000e+00 0.0000000000000000e+00 0.0000000000000000e+00  0.0000000000000000e+00 0.0000000000000000e+00 0.0000000000000000e+00  0.0000000000000000e+00 0.0000000000000000e+00 0.0000000000000000e+00  0.0000000000000000e+00 0.0000000000000000e+00 0.0000000000000000e+00  0.0000000000000000e+00 0.0000000000000000e+00 0.0000000000000000e+00  0.0000000000000000e+00 0.0000000000000000e+00 0.0000000000000000e+00  0.0000000000000000e+00 0.0000000000000000e+00 0.0000000000000000e+00  0.0000000000000000e+00 0.0000000000000000e+00 0.0000000000000000e+00  0.0000000000000000e+00 0.0000000000000000e+00 0.0000000000000000e+00  0.0000000000000000e+00 0.0000000000000000e+00 0.0000000000000000e+00  0.0000000000000000e+00 0.0000000000000000e+00 0.0000000000000000e+00  0.0000000000000000e+00 0.0000000000000000e+00 0.0000000000000000e+00  0.0000000000000000e+00 0.0000000000000000e+00 0.0000000000000000e+00  0.0000000000000000e+00 0.0000000000000000e+00 0.0000000000000000e+00  0.0000000000000000e+00 0.0000000000000000e+00 0.0000000000000000e+00  0.0000000000000000e+00 0.0000000000000000e+00 0.0000000000000000e+00  0.0000000000000000e+00 0.0000000000000000e+00 0.0000000000000000e+00  0.0000000000000000e+00 0.0000000000000000e+00 0.0000000000000000e+00  0.0000000000000000e+00 0.0000000000000000e+00 0.0000000000000000e+00  0.0000000000000000e+00 0.0000000000000000e+00 0.0000000000000000e+00  0.0000000000000000e+00 0.0000000000000000e+00 0.0000000000000000e+00  0.0000000000000000e+00 0.0000000000000000e+00 0.0000000000000000e+00  0.0000000000000000e+00 0.0000000000000000e+00 0.0000000000000000e+00  0.0000000000000000e+00 0.0000000000000000e+00 0.0000000000000000e+00  0.0000000000000000e+00 0.0000000000000000e+00 0.0000000000000000e+00  0.0000000000000000e+00 0.0000000000000000e+00 0.0000000000000000e+00  0.0000000000000000e+00 0.0000000000000000e+00 0.0000000000000000e+00  0.0000000000000000e+00 0.0000000000000000e+00 0.0000000000000000e+00  0.0000000000000000e+00 0.0000000000000000e+00 0.0000000000000000e+00  0.0000000000000000e+00 0.0000000000000000e+00 0.0000000000000000e+00  0.0000000000000000e+00 0.0000000000000000e+00 0.0000000000000000e+00  0.0000000000000000e+00 0.0000000000000000e+00 0.0000000000000000e+00  0.0000000000000000e+00 0.0000000000000000e+00 0.0000000000000000e+00  0.0000000000000000e+00 0.0000000000000000e+00 0.0000000000000000e+00  0.0000000000000000e+00 0.0000000000000000e+00 0.0000000000000000e+00  0.0000000000000000e+00 0.0000000000000000e+00 0.0000000000000000e+00  0.0000000000000000e+00 0.0000000000000000e+00 0.0000000000000000e+00  0.0000000000000000e+00 0.0000000000000000e+00 0.0000000000000000e+00  0.0000000000000000e+00 0.0000000000000000e+00 0.0000000000000000e+00  0.0000000000000000e+00 0.0000000000000000e+00 0.0000000000000000e+00  0.0000000000000000e+00 0.0000000000000000e+00 0.0000000000000000e+00  0.0000000000000000e+00 0.0000000000000000e+00 0.0000000000000000e+00  0.0000000000000000e+00 0.0000000000000000e+00 0.0000000000000000e+00  0.0000000000000000e+00 0.0000000000000000e+00 0.0000000000000000e+00  1.0818275440073684e+00 -6.7127203939481477e-04 0.0000000000000000e+00  1.2475317650741029e+00 -6.8228856859125680e-03 0.0000000000000000e+00  1.3024018102024413e+00 -1.6186339299817058e-02 0.0000000000000000e+00  1.0951652597789490e+00 -1.5529938642142383e-03 0.0000000000000000e+00  0.0000000000000000e+00 0.0000000000000000e+00 0.0000000000000000e+00  0.0000000000000000e+00 0.0000000000000000e+00 0.0000000000000000e+00  0.0000000000000000e+00 0.0000000000000000e+00 0.0000000000000000e+00  0.0000000000000000e+00 0.0000000000000000e+00 0.0000000000000000e+00  0.0000000000000000e+00 0.0000000000000000e+00 0.0000000000000000e+00  0.0000000000000000e+00 0.0000000000000000e+00 0.0000000000000000e+00  0.0000000000000000e+00 0.0000000000000000e+00 0.0000000000000000e+00  0.0000000000000000e+00 0.0000000000000000e+00 0.0000000000000000e+00  0.0000000000000000e+00 0.0000000000000000e+00 0.0000000000000000e+00  0.0000000000000000e+00 0.0000000000000000e+00 0.0000000000000000e+00  0.0000000000000000e+00 0.0000000000000000e+00 0.0000000000000000e+00  0.0000000000000000e+00 0.0000000000000000e+00 0.0000000000000000e+00  0.0000000000000000e+00 0.0000000000000000e+00 0.0000000000000000e+00  0.0000000000000000e+00 0.0000000000000000e+00 0.0000000000000000e+00  0.0000000000000000e+00 0.0000000000000000e+00 0.0000000000000000e+00  0.0000000000000000e+00 0.0000000000000000e+00 0.0000000000000000e+00  0.0000000000000000e+00 0.0000000000000000e+00 0.0000000000000000e+00  0.0000000000000000e+00 0.0000000000000000e+00 0.0000000000000000e+00  0.0000000000000000e+00 0.0000000000000000e+00 0.0000000000000000e+00  0.0000000000000000e+00 0.0000000000000000e+00 0.0000000000000000e+00  0.0000000000000000e+00 0.0000000000000000e+00 0.0000000000000000e+00  9.6000004384153848e-01 0.0000000000000000e+00 0.0000000000000000e+00  1.4400000657636300e+00 0.0000000000000000e+00 0.0000000000000000e+00  1.4400000657662082e+00 0.0000000000000000e+00 0.0000000000000000e+00  9.6000004384517812e-01 0.0000000000000000e+00 0.0000000000000000e+00  6.2289138014497603e-01 -3.9746130098860294e-01 0.0000000000000000e+00  2.3859193794996988e-01 3.4342437940688658e-01 0.0000000000000000e+00  3.0857439356416067e-01 2.7279671369649283e-01 0.0000000000000000e+00  1.8005604064920107e+00 3.0391762595986375e-03 0.0000000000000000e+00  1.9646380739389195e+00 1.0972512536460220e-01 0.0000000000000000e+00  1.4610003433062810e+00 2.2163499457478400e-01 0.0000000000000000e+00  1.3122104994740307e+00 3.5386153509454982e-01 0.0000000000000000e+00  1.3306691388477794e+00 2.5518129851307642e-01 0.0000000000000000e+00  1.3068281924562928e+00 -7.7442482419817493e-02 0.0000000000000000e+00  1.2671944207681032e+00 -3.2582492171018390e-01 0.0000000000000000e+00  1.4134571954544422e+00 -3.6436350776122040e-01 0.0000000000000000e+00  -2.4623131404856619e-01 1.1830693478600968e-01 0.0000000000000000e+00  1.2321862647247026e+00 -1.6993394382275252e-02 0.0000000000000000e+00  8.0742240218515643e-02 -6.1611469698653616e-02 0.0000000000000000e+00  -6.9251197821568439e-02 1.5948661906040501e-01 0.0000000000000000e+00  1.3440962000376309e+00 8.3346358118879416e-01 0.0000000000000000e+00  2.2242397248295498e-01 5.8257724611844301e-02 0.0000000000000000e+00  1.8818177851505762e+00 -1.9461379294703687e-01 0.0000000000000000e+00  1.4053561101091880e+00 1.2020150111842352e-01 0.0000000000000000e+00  1.8258122724683736e+00 -4.1021602438436611e-01 0.0000000000000000e+00  1.4030532358453294e+00 -1.6940293775376122e-01 0.0000000000000000e+00  1.7042118493128902e+00 2.1816530947564641e-01 0.0000000000000000e+00  1.5703665093526480e+00 8.4115243218925315e-02 0.0000000000000000e+00  1.0312094880957003e+00 -3.9448328935772277e-02 0.0000000000000000e+00  1.9957001649674118e+00 4.5328753556154155e-01 0.0000000000000000e+00  1.8611268117798137e+00 6.5224787579271182e-01 0.0000000000000000e+00  1.4908546484177025e+00 7.7777594924906301e-01 0.0000000000000000e+00  1.1459033716618368e+00 5.6097869946884149e-01 0.0000000000000000e+00  9.3959580032961165e-01 1.0340544295342306e-01 0.0000000000000000e+00  9.8656457296752076e-01 -4.0035517987627783e-01 0.0000000000000000e+00  1.2962710478492707e+00 -7.0009608201820583e-01 0.0000000000000000e+00  1.6602575334182497e+00 -7.1193993802906264e-01 0.0000000000000000e+00  1.9218866811575259e+00 -5.0774641654079344e-01 0.0000000000000000e+00  1.3894854104148913e+00 -3.9904745716083032e-02 0.0000000000000000e+00  7.1164856653250275e-01 -1.1031088954179889e-02 0.0000000000000000e+00  1.3270556157842486e+00 2.3525582233641207e-02 0.0000000000000000e+00  -1.4257218401311406e-01 1.9171347800769959e-02 0.0000000000000000e+00  1.7266631660363472e+00 -1.3841597653736666e-02 0.0000000000000000e+00  1.2201035033174314e+00 -1.3207130277951151e-01 0.0000000000000000e+00  1.8579281385654887e+00 -1.8938195881932171e-01 0.0000000000000000e+00  1.2461128829853145e+00 8.3229317228282196e-03 0.0000000000000000e+00  1.2752711389658622e+00 6.6557611560511308e-03 0.0000000000000000e+00  -7.2849681508541361e-02 1.2737084496785869e-01 0.0000000000000000e+00  1.8043406003646107e+00 -1.7162162072701195e-01 0.0000000000000000e+00  1.4824561320878720e+00 -6.1192923687334692e-03 0.0000000000000000e+00  1.1593269488191076e+00 9.8529090909115338e-02 0.0000000000000000e+00  1.5263997500379021e+00 3.1930816844574478e-01 0.0000000000000000e+00  1.2257302276919504e+00 2.1254204685397699e-02 0.0000000000000000e+00  1.2163516279152706e+00 -5.4907677665089277e-02 0.0000000000000000e+00  -9.4735972886120526e-02 -7.8175521230916298e-02 0.0000000000000000e+00  1.5011064739745206e+00 -1.4727127394802406e-01 0.0000000000000000e+00  8.0740754606191911e-01 -1.2596584679379361e-02 0.0000000000000000e+00  1.0766470850175709e+00 1.6760179182500148e-01 0.0000000000000000e+00  8.2531457025403065e-01 -3.9352810550295964e-01 0.0000000000000000e+00  1.7405396622055340e+00 8.6388017497304803e-01 0.0000000000000000e+00  1.2329085934394157e+00 9.4626741131845615e-01 0.0000000000000000e+00  7.5965030918373455e-01 5.1289449595852843e-01 0.0000000000000000e+00  6.4622824983585592e-01 -1.9708902062916406e-01 0.0000000000000000e+00  2.0046322524091948e+00 6.0574176696219528e-01 0.0000000000000000e+00  1.9644081486190166e+00 -2.7210977147257953e-01 0.0000000000000000e+00  1.4555134545806179e+00 2.1751022741136578e-01 0.0000000000000000e+00  9.6852362051387630e-01 -8.0039884282661267e-01 0.0000000000000000e+00  1.2858276928615133e+00 -1.8031048221650969e-01 0.0000000000000000e+00  1.3465845660151601e+00 -5.9039004172330489e-02 0.0000000000000000e+00  1.2601577157577579e+00 1.1794191126298917e-02 0.0000000000000000e+00  1.2568762958823414e+00 4.1468346156630781e-02 0.0000000000000000e+00  2.3062580652707582e-01 4.2524331284552137e-02 0.0000000000000000e+00  -5.7996065159307914e-02 1.0126259216910434e-01 0.0000000000000000e+00  -5.6305333533466402e-02 5.0984396349278947e-02 0.0000000000000000e+00  1.6307937465677305e+00 -4.0868925129265093e-01 0.0000000000000000e+00  1.6817978627227181e+00 1.1149566492100643e-01 0.0000000000000000e+00  3.3854935681029694e-02 -8.9166819705244538e-02 0.0000000000000000e+00  1.5217832246262899e+00 -1.0430259953598777e+00 0.0000000000000000e+00  1.1868346753174499e+00 2.3580966912414494e-01 0.0000000000000000e+00  4.0895565805535766e-01 9.1240447681701226e-02 0.0000000000000000e+00  1.7438347473745612e+00 5.4521679508874932e-01 0.0000000000000000e+00  1.0143556857483367e+00 -2.3149844062885075e-01 0.0000000000000000e+00  1.1852885195486393e+00 4.4450879278064896e-02 0.0000000000000000e+00  1.0787864754324148e+00 8.1478847734229726e-02 0.0000000000000000e+00  1.1314061484381848e+00 -6.8913111588404158e-02 0.0000000000000000e+00  5.0187121696667969e-01 -2.1462649965169271e-02 0.0000000000000000e+00  1.7683217691287481e+00 -3.2935043313708923e-01 0.0000000000000000e+00  -6.7722567091954053e-02 -1.2309444587939342e-01 0.0000000000000000e+00  1.5071426753624393e+00 1.1171939871052394e+00 0.0000000000000000e+00  -5.1321021308585617e-02 -3.6704317723838732e-02 0.0000000000000000e+00  1.8701467797559197e+00 7.7295016352756385e-01 0.0000000000000000e+00  8.4067151640673887e-01 9.2392662670650560e-01 0.0000000000000000e+00  4.2990352037947982e-01 1.9903654167769669e-01 0.0000000000000000e+00  1.2270990297630637e+00 4.1743978642665699e-02 0.0000000000000000e+00  1.2558001017910494e+00 2.8042764199123681e-02 0.0000000000000000e+00  1.0306778670454031e+00 -4.6700658453835357e-02 0.0000000000000000e+00  1.3545624429252581e+00 2.5075640167039975e-01 0.0000000000000000e+00  -5.9206200873629621e-02 6.5658749036783176e-02 0.0000000000000000e+00  5.9668843635459823e-01 -6.3085096698510967e-01 0.0000000000000000e+00  8.7468026462679460e-01 -5.1720355815145620e-02 0.0000000000000000e+00  1.9626581172715520e+00 -7.9349322197418470e-01 0.0000000000000000e+00  1.1767862286775823e+00 3.8098213362909301e-04 0.0000000000000000e+00  2.6639901190376558e-01 3.2468322529378341e-02 0.0000000000000000e+00  -2.5578247094803996e-01 4.2991959173379390e-01 0.0000000000000000e+00  1.4849224678010886e+00 -1.4407432036338502e-01 0.0000000000000000e+00  1.1697325342956939e+00 -1.0898319605958997e+00 0.0000000000000000e+00  1.3204586951030322e+00 -1.3973959638975927e-01 0.0000000000000000e+00  8.8517483725178003e-01 -1.1393827770977744e-01 0.0000000000000000e+00  1.0385178561398778e+00 -1.7552377189499153e-02 0.0000000000000000e+00  7.8203114894052639e-01 -4.9980637797236445e-02 0.0000000000000000e+00  3.1389712189022874e-02 -5.5413602541115527e-02 0.0000000000000000e+00  1.4099675666738458e+00 7.7541342634674132e-02 0.0000000000000000e+00  1.8377372353444408e+00 -5.0988492602150159e-01 0.0000000000000000e+00  9.3416020220261164e-01 9.5316165653215754e-02 0.0000000000000000e+00  1.7878129571585668e+00 -1.0005053573093097e+00 0.0000000000000000e+00  1.0581864407844090e+00 2.4494290023990992e-02 0.0000000000000000e+00  1.7104170040392972e+00 1.6509870180721062e-01 0.0000000000000000e+00  5.3043775965038953e-01 1.8870754563799030e-01 0.0000000000000000e+00  1.4137915875992384e+00 8.1904935197595424e-02 0.0000000000000000e+00  1.0294644973932805e+00 1.6509916106003336e-01 0.0000000000000000e+00  -1.5392344862679702e-01 1.2146052388646353e-01 0.0000000000000000e+00  1.0939751295594631e+00 -3.5332018693480858e-03 0.0000000000000000e+00  1.3607585891207912e+00 4.3572934692427978e-01 0.0000000000000000e+00  1.3043323443431487e+00 -5.2724810840676026e-02 0.0000000000000000e+00  1.2703790157973145e+00 1.6128599254553133e-01 0.0000000000000000e+00  1.2895228203152542e+00 1.3446435095678813e-01 0.0000000000000000e+00  1.3030851809391735e+00 1.1129837321074805e-01 0.0000000000000000e+00  1.8504619780156160e+00 2.0447571591505612e-01 0.0000000000000000e+00  1.2032775676465834e+00 1.4093866792448478e-01 0.0000000000000000e+00  1.9544480843979843e+00 -4.4289865189823278e-03 0.0000000000000000e+00  -3.5651342565407626e-02 7.0949442637164045e-02 0.0000000000000000e+00  1.2843115858733727e+00 -5.9592845362573296e-02 0.0000000000000000e+00  1.5757056825893145e+00 4.1346247710747486e-01 0.0000000000000000e+00  1.5360806906498174e+00 3.9730943227398209e-02 0.0000000000000000e+00  1.6095100168241925e+00 -8.1119765928183907e-01 0.0000000000000000e+00  1.0121604508832123e+00 -1.6401124067795720e-02 0.0000000000000000e+00  1.5415290459148236e+00 1.3281275075422486e-01 0.0000000000000000e+00  1.5772654618052944e+00 5.1073814431793174e-01 0.0000000000000000e+00  1.6602043824587223e+00 -1.0559212219188746e-03 0.0000000000000000e+00  -1.4380672344221053e-02 1.2712739741936224e-01 0.0000000000000000e+00  1.2718885164447726e+00 -3.2210865762546564e-01 0.0000000000000000e+00  1.1883925484860987e+00 5.6408183651169541e-01 0.0000000000000000e+00  1.4065194147359901e+00 -3.9940615096248945e-02 0.0000000000000000e+00  8.5383468322468004e-01 -1.9168221783062381e-02 0.0000000000000000e+00  8.7031907599526581e-01 -7.1616468016122606e-02 0.0000000000000000e+00  8.5240346406558121e-01 1.0936654595496215e-02 0.0000000000000000e+00  1.3671524067976917e+00 -1.9804818380499492e-01 0.0000000000000000e+00  1.8958005797314583e+00 2.3389980743866978e-01 0.0000000000000000e+00  8.4333779138824461e-01 1.3953458855005640e-01 0.0000000000000000e+00  1.0637295423074089e+00 -2.3507404108611729e-01 0.0000000000000000e+00  9.5213260243622322e-01 -1.4911939855352113e-01 0.0000000000000000e+00  -3.4108699309485091e-01 3.3876374886203897e-01 0.0000000000000000e+00  -1.3728304818014972e-01 2.2771286111593658e-01 0.0000000000000000e+00  1.0076031911582031e+00 -4.4349972110156169e-04 0.0000000000000000e+00  9.6094657704224584e-01 1.7235409066581433e-03 0.0000000000000000e+00  3.2119367534090441e-02 -4.8173471414659286e-01 0.0000000000000000e+00  1.6210300021158057e+00 2.8718203193532202e-02 0.0000000000000000e+00  1.1300002689289896e+00 -7.6689179460552503e-01 0.0000000000000000e+00  8.7903554630910308e-01 4.8766903628606369e-02 0.0000000000000000e+00  1.1814098783440539e+00 -7.3953692636790445e-03 0.0000000000000000e+00  8.8622499622948481e-01 1.4729146968192140e-03 0.0000000000000000e+00  4.4646373039457427e-02 8.3119354413977678e-02 0.0000000000000000e+00  1.0456124392486852e+00 -2.0894770758240100e-01 0.0000000000000000e+00  8.3980765077441877e-01 -3.2969807115550157e-02 0.0000000000000000e+00  1.0898463400594771e+00 1.1337876712619777e+00 0.0000000000000000e+00  1.6521080228450467e+00 9.5747133638349335e-01 0.0000000000000000e+00  4.5027513185917339e-01 6.4992457035633100e-01 0.0000000000000000e+00  3.0553160980337474e-01 -2.5129689961246532e-01 0.0000000000000000e+00  7.5016905975869830e-01 1.3100722767688585e-02 0.0000000000000000e+00  -3.9878983526235756e-02 4.8841176653058330e-02 0.0000000000000000e+00  1.3786276161127418e+00 3.6794006507439703e-01 0.0000000000000000e+00  -6.1350495966570821e-02 -9.5987968781761773e-02 0.0000000000000000e+00  -4.9567731500348190e-02 -9.4607998150435607e-02 0.0000000000000000e+00  1.2874993848467062e+00 -6.4643943609872393e-03 0.0000000000000000e+00  1.2299744886678678e+00 8.3058449045492182e-03 0.0000000000000000e+00  7.4802456094912928e-01 -9.9191887335822015e-01 0.0000000000000000e+00  8.5530458047124436e-01 1.6310576101076632e-03 0.0000000000000000e+00  6.1013477077104317e-01 5.0581633993479105e-02 0.0000000000000000e+00  6.1026747135004755e-01 3.6907467935975317e-02 0.0000000000000000e+00  6.4080366395405908e-01 4.2510214696465480e-02 0.0000000000000000e+00  1.3868034445053068e+00 -4.6690234309210793e-01 0.0000000000000000e+00  5.1121004415567672e-01 -2.7359208960300985e-01 0.0000000000000000e+00  4.2906632198058536e-01 3.0900697368464139e-02 0.0000000000000000e+00  7.7794593399117618e-01 -7.0389490086747762e-03 0.0000000000000000e+00  -1.4166474567757845e-01 -1.1632202056116628e-02 0.0000000000000000e+00  9.5397779235303526e-01 -7.3264231234788811e-03 0.0000000000000000e+00  1.4119825649159128e+00 4.0159851074531669e-02 0.0000000000000000e+00  7.2371568275922871e-01 -3.4104787253174507e-02 0.0000000000000000e+00  1.7719519358190059e+00 1.5316027385450290e-01 0.0000000000000000e+00  1.4589727710371156e+00 -1.8112703082495778e-02 0.0000000000000000e+00  1.5702861076961017e+00 5.8829250532968436e-01 0.0000000000000000e+00  1.3399009588769848e+00 -9.4773431131595115e-02 0.0000000000000000e+00  1.3401569202166961e+00 -1.9660673227031140e-02 0.0000000000000000e+00  1.3503768525508753e+00 1.0096720046240415e-01 0.0000000000000000e+00  1.4404440508454173e+00 -7.8444333329167584e-04 0.0000000000000000e+00  1.2653626671266314e+00 7.7959358377435756e-02 0.0000000000000000e+00  1.2186755323045939e+00 -2.7605683779714965e-02 0.0000000000000000e+00  1.0747370431086150e+00 -2.3183625013643336e-02 0.0000000000000000e+00  1.2141705017946325e+00 -8.2939861572003143e-02 0.0000000000000000e+00  1.2886036737024227e+00 -6.1777695832719401e-02 0.0000000000000000e+00  1.0124582177219661e+00 2.7635097142796217e-02 0.0000000000000000e+00  1.6058702929111357e+00 3.27171573058