<?xml version="1.0"?>
<VTKFile type="UnstructuredGrid"  version="0.1"  >
<UnstructuredGrid>
<Piece  NumberOfPoints="3852" NumberOfCells="7360">
<Points>
<DataArray  type="Float64"  NumberOfComponents="3"  format="ascii">0 0 0  0 0.41 0  2.2 0.41 0  2.2 0 0  0.2 0.15 0  0.15 0.2 0  0.2 0.25 0  0.25 0.2 0  0.2097545161007899 0.1509607359798352 0  0.219134171618224 0.153806023374423 0  0.2277785116509268 0.1584265193848371 0  0.2353553390592504 0.1646446609405956 0  0.2415734806150793 0.1722214883489481 0  0.2461939766255306 0.1808658283816641 0  0.249039264020151 0.1902454838991403 0  0.2490392640201666 0.2097545161007811 0  0.2461939766255869 0.2191341716182 0  0.2415734806151802 0.2277785116509009 0  0.2353553390594108 0.235355339059244 0  0.2277785116510524 0.2415734806150789 0  0.2191341716182962 0.2461939766255471 0  0.209754516100834 0.2490392640201561 0  0.1902454838992189 0.2490392640201666 0  0.1808658283818 0.2461939766255869 0  0.1722214883490991 0.2415734806151802 0  0.164644660940756 0.2353553390594108 0  0.1584265193849211 0.2277785116510524 0  0.1538060233744529 0.2191341716182962 0  0.150960735979844 0.209754516100834 0  0.1509607359798352 0.1902454838992101 0  0.153806023374423 0.180865828381776 0  0.1584265193848371 0.1722214883490732 0  0.1646446609405956 0.1646446609407496 0  0.1722214883489481 0.1584265193849207 0  0.1808658283816641 0.1538060233744694 0  0.1902454838991403 0.150960735979849 0  0.09999999999980318 0 0  0.1999999999996354 0 0  0.2999999999994593 0 0  0.3999999999991452 0 0  0.4999999999988309 0 0  0.599999999998495 0 0  0.6999999999982023 0 0  0.7999999999979096 0 0  0.8999999999975735 0 0  0.9999999999972848 0 0  1.099999999997053 0 0  1.199999999997309 0 0  1.299999999997566 0 0  1.399999999997821 0 0  1.49999999999809 0 0  1.599999999998377 0 0  1.69999999999859 0 0  1.799999999998877 0 0  1.899999999999145 0 0  1.999999999999386 0 0  2.099999999999693 0 0  2.2 0.08199999999981657 0  2.2 0.1639999999995688 0  2.2 0.2459999999995603 0  2.2 0.327999999999785 0  2.100000000000048 0.41 0  2.000000000000269 0.41 0  1.900000000000422 0.41 0  1.800000000000679 0.41 0  1.700000000000931 0.41 0  1.600000000001326 0.41 0  1.500000000001665 0.41 0  1.400000000002032 0.41 0  1.300000000002395 0.41 0  1.200000000002644 0.41 0  1.100000000002865 0.41 0  1.000000000002617 0.41 0  0.900000000002368 0.41 0  0.8000000000021192 0.41 0  0.7000000000018587 0.41 0  0.6000000000015786 0.41 0  0.5000000000013736 0.41 0  0.4000000000010933 0.41 0  0.3000000000008329 0.41 0  0.2000000000005997 0.41 0  0.1000000000003003 0.41 0  0 0.3280000000001975 0  0 0.2460000000004372 0  0 0.1640000000004437 0  0 0.08200000000021695 0  0.439039350479032 0.2235433210862024 0  0.3557293424662716 0.1539377961885917 0  0.3450132387946972 0.2399891502764809 0  0.2900756359792848 0.08507884665974728 0  0.2884413411145515 0.3059878288466324 0  0.2102195502178943 0.3385267178242456 0  0.137328909169326 0.3152847369018352 0  0.08490385663776813 0.2628976192695439 0  0.08063302347471875 0.188368977740952 0  0.1005937615311739 0.1162460982751979 0  0.1621860847198582 0.08598327887900903 0  0.3012864586130264 0.1926027915888804 0  1.999140000000448 0.2049999999995642 0  0.2742354912953259 0.1572259708446958 0  0.2871471664627305 0.2264358039321654 0  0.6542851578645765 0.1981889790488746 0  0.2651366296338276 0.2534562504463119 0  0.2371819217149928 0.0977949043027586 0  1.651678197071202 0.2145186615851206 0  1.349674714201118 0.2086119645070391 0  0.9627539291831038 0.2056711800839285 0  0.2360880502985623 0.2733043913425156 0  1.159884231859056 0.2050429640239795 0  0.2502927927237266 0.1358797630898622 0  0.2080582834123368 0.2835355213895352 0  0.1805439632603489 0.278338480667804 0  0.1486243506827335 0.2626014098227327 0  0.1266658889266303 0.2392753516137401 0  0.1179814841582247 0.2069380844236527 0  0.1225167704961566 0.1764957192948648 0  0.1357996569043286 0.1472158045151807 0  0.1619764829264572 0.126298308975886 0  0.1935640279204225 0.116654032325456 0  1.82457000000085 0.2346439024393236 0  0.8027657238591595 0.149277802568535 0  1.498563450727992 0.2632867809910664 0  0.2770405925201826 0.1924926016722167 0  0.470924801584011 0.09138612536042019 0  0.550693598792917 0.2898604497866635 0  0.381089831438127 0.3238078833671811 0  2.074516462495042 0.125705772324225 0  2.083599037046577 0.2769549245607841 0  0.2692296340100125 0.2210592970306522 0  0.7614733075682367 0.2839235561638241 0  1.536698221979284 0.1258192462655419 0  1.231809489345021 0.1282542717942667 0  1.054759157670174 0.1242749934189342 0  1.754535566851005 0.1223197024158991 0  1.90452621597739 0.1324728094649104 0  0.2672409321155211 0.178737994598723 0  1.254401531996246 0.2902808614622134 0  1.04350934597445 0.2986664252663559 0  0.0749710792305778 0.3208721925318313 0  0.5425289614095572 0.165152457827861 0  0.1663208394680799 0.2644065126118989 0  0.1471335176887868 0.2433864007787126 0  0.1345556779484054 0.219852318055334 0  0.131940483167677 0.1932967226753857 0  0.1941574795820069 0.2685534232066453 0  0.2226696214021025 0.1252682734732412 0  0.2193882214552426 0.2661718674478616 0  0.1396865053227576 0.1677617654469802 0  0.8749487631478475 0.295170577255529 0  1.424301820545763 0.1157348858866879 0  1.918515045506933 0.2902236143624367 0  1.744876807925144 0.306628844405037 0  0.2443979144126529 0.254353837216211 0  0.2569054246570621 0.2306780201523878 0  0.2632507216716993 0.2062296523407826 0  0.4609453431326088 0.3138128990490959 0  0.3578015395476809 0.08253318517696946 0  0.2529777826635333 0.155582948480283 0  0.1580369715200277 0.1487041474358234 0  0.652872088668587 0.3101079993636056 0  0.297147332491062 0.2558065812325378 0  0.6188247313471635 0.1101603945467571 0  0.8951149554961688 0.1123812542864208 0  1.592749166085722 0.2985190085719691 0  1.40420309431358 0.2992155383468256 0  1.649189110727275 0.1000387439201274 0  0.2301663900864273 0.1432830242131801 0  0.2064839406544439 0.1345771465164309 0  0.2548204572493643 0.1702022465417566 0  0.1606700828011604 0.2481621709908606 0  0.2605987457303776 0.1928909671966518 0  0.1826942838524941 0.2594610608897559 0  0.1456438338561037 0.2290651013631561 0  0.1387681034994896 0.2058679665896095 0  1.140902260384949 0.3081952438204152 0  2.123402621966431 0.2039515281261525 0  0.7272188829630218 0.1047469619375249 0  0.2060868819369127 0.2616331638469837 0  0.246763614216289 0.2411610007697902 0  0.1405961691450822 0.1819800466423126 0  1.149638048863541 0.08264492713269313 0  0.1809997740285721 0.1365020267363126 0  1.993198408221569 0.09755938404998035 0  0.2287111352430851 0.2547015941619741 0  0.3818716699056283 0.2060398770290832 0  0.39147508084147 0.2656155699545688 0  0.151201080877373 0.1608659990301362 0  0.0542521118046473 0.1382221876243976 0  0.06190301158313444 0.0685934933767465 0  1.317316039400266 0.1015983144534349 0  0.2176417279723976 0.1415790407114221 0  0.2401571300978209 0.1529210337009423 0  0.2618092962776011 0.3566662607419938 0  0.1941527094396574 0.1377969918002053 0  0.9590486261329707 0.3255353063371385 0  0.1708201090411339 0.1447474051814825 0  1.837592370686806 0.3302992722413595 0  0.3197015570210796 0.1212159119695666 0  0.4155281956943757 0.1409543952531078 0  0.0549491513262805 0.2307535706287103 0  0.1668210562270142 0.3605647861782867 0  0.2854688902460447 0.2093700809023571 0  2.013251581901814 0.3292746985146142 0  0.1192191106244758 0.2809901915857802 0  0.2487958366614321 0.04556523514103697 0  0.09061021186838321 0.2240174335271237 0  1.737143840576958 0.20912817770623 0  0.04515017012776967 0.2784708690411318 0  0.5347554646753627 0.08988970780599832 0  0.977104673723579 0.08241628541188413 0  0.336509991617897 0.2888965225844298 0  0.2569238041969055 0.2173711314485607 0  1.906541186051535 0.2125389476829634 0  0.1762338839607841 0.3102437166134606 0  1.449268841077636 0.201011295143529 0  0.8555371485878378 0.2099663446585434 0  1.837208236203613 0.07556229833764837 0  1.264402545318887 0.1992523923163096 0  1.068181074047183 0.2155119107017876 0  0.3158931250274742 0.3421721218291775 0  0.2731958384900449 0.2373435058667565 0  0.09875906484220501 0.1533097574901186 0  0.7355755433976705 0.2066339904079041 0  1.567440499207928 0.2049999999995983 0  1.329829828222916 0.3295825481537897 0  0.8214190147401245 0.07894167681990104 0  1.525459989258997 0.3394220200696043 0  0.1990897327079506 0.06300531675246424 0  0.244701762210989 0.3062404318132603 0  0.1033853772622983 0.3551443431224104 0  0.1178236825374896 0.07148041782551597 0  0.1558198999929474 0.04409380269139784 0  0.3389178979413869 0.198678920661321 0  0.310790717645908 0.2196004930752872 0  2.125022007676643 0.3402049371791425 0  2.130028889485561 0.06535501282233655 0  0.4821161335597635 0.1626909543876269 0  0.2838678108956019 0.1254276466262967 0  0.5062815929260498 0.2376271077316994 0  1.663059277092996 0.3422301118688678 0  1.82292665764828 0.1574809263836269 0  2.052538557905295 0.05717536030732174 0  0.3078251537889645 0.16056368457456 0  0.8108267070172145 0.3390047366820738 0  1.487254632568403 0.0703866281621833 0  0.155004430757041 0.2369517702015699 0  0.1725545045705267 0.2519594403466565 0  0.1445581653510352 0.2167994984574706 0  0.1420710285613199 0.1942747855116325 0  1.461861739291679 0.3471998553985149 0  0.2372128969196007 0.2453440460936858 0  0.1943665918892754 0.2580518465884657 0  0.2452139232912363 0.1629124725160763 0  0.2555786751481889 0.1825885041235872 0  2.14640473333793 0.2790222779730848 0  2.145589594789407 0.1282024626544199 0  0.1486651579751984 0.1726583296292201 0  0.550000000001476 0.3603327897285098 0  0.0505668771231032 0.3660023622363767 0  1.049999999997169 0.05217028468202135 0  1.244771793631775 0.05744029386223062 0  0.1356759337238615 0.1094447816941579 0  0.5872326411628903 0.2223148728195226 0  0.2168458206248643 0.2558159203714847 0  1.749999999998732 0.05166028789524129 0  0.2855257256666041 0.1763246086558152 0  1.92
[...]
<PointData  Vectors="f_22"> 
<DataArray  type="Float64"  Name="f_22"  NumberOfComponents="3" format="ascii">0.0000000000000000e+00 0.0000000000000000e+00 0.0000000000000000e+00  0.0000000000000000e+00 0.0000000000000000e+00 0.0000000000000000e+00  0.0000000000000000e+00 0.0000000000000000e+00 0.0000000000000000e+00  0.0000000000000000e+00 0.0000000000000000e+00 0.0000000000000000e+00  0.0000000000000000e+00 0.0000000000000000e+00 0.0000000000000000e+00  0.0000000000000000e+00 0.0000000000000000e+00 0.0000000000000000e+00  0.0000000000000000e+00 0.0000000000000000e+00 0.0000000000000000e+00  0.0000000000000000e+00 0.0000000000000000e+00 0.0000000000000000e+00  0.0000000000000000e+00 0.0000000000000000e+00 0.0000000000000000e+00  0.0000000000000000e+00 0.0000000000000000e+00 0.0000000000000000e+00  0.0000000000000000e+00 0.0000000000000000e+00 0.0000000000000000e+00  0.0000000000000000e+00 0.0000000000000000e+00 0.0000000000000000e+00  0.0000000000000000e+00 0.0000000000000000e+00 0.0000000000000000e+00  0.0000000000000000e+00 0.0000000000000000e+00 0.0000000000000000e+00  0.0000000000000000e+00 0.0000000000000000e+00 0.0000000000000000e+00  0.0000000000000000e+00 0.0000000000000000e+00 0.0000000000000000e+00  0.0000000000000000e+00 0.0000000000000000e+00 0.0000000000000000e+00  0.0000000000000000e+00 0.0000000000000000e+00 0.0000000000000000e+00  0.0000000000000000e+00 0.0000000000000000e+00 0.0000000000000000e+00  0.0000000000000000e+00 0.0000000000000000e+00 0.0000000000000000e+00  0.0000000000000000e+00 0.0000000000000000e+00 0.0000000000000000e+00  0.0000000000000000e+00 0.0000000000000000e+00 0.0000000000000000e+00  0.0000000000000000e+00 0.0000000000000000e+00 0.0000000000000000e+00  0.0000000000000000e+00 0.0000000000000000e+00 0.0000000000000000e+00  0.0000000000000000e+00 0.0000000000000000e+00 0.0000000000000000e+00  0.0000000000000000e+00 0.0000000000000000e+00 0.0000000000000000e+00  0.0000000000000000e+00 0.0000000000000000e+00 0.0000000000000000e+00  0.0000000000000000e+00 0.0000000000000000e+00 0.0000000000000000e+00  0.0000000000000000e+00 0.0000000000000000e+00 0.0000000000000000e+00  0.0000000000000000e+00 0.0000000000000000e+00 0.0000000000000000e+00  0.0000000000000000e+00 0.0000000000000000e+00 0.0000000000000000e+00  0.0000000000000000e+00 0.0000000000000000e+00 0.0000000000000000e+00  0.0000000000000000e+00 0.0000000000000000e+00 0.0000000000000000e+00  0.0000000000000000e+00 0.0000000000000000e+00 0.0000000000000000e+00  0.0000000000000000e+00 0.0000000000000000e+00 0.0000000000000000e+00  0.0000000000000000e+00 0.0000000000000000e+00 0.0000000000000000e+00  0.0000000000000000e+00 0.0000000000000000e+00 0.0000000000000000e+00  0.0000000000000000e+00 0.0000000000000000e+00 0.0000000000000000e+00  0.0000000000000000e+00 0.0000000000000000e+00 0.0000000000000000e+00  0.0000000000000000e+00 0.0000000000000000e+00 0.0000000000000000e+00  0.0000000000000000e+00 0.0000000000000000e+00 0.0000000000000000e+00  0.0000000000000000e+00 0.0000000000000000e+00 0.0000000000000000e+00  0.0000000000000000e+00 0.0000000000000000e+00 0.0000000000000000e+00  0.0000000000000000e+00 0.0000000000000000e+00 0.0000000000000000e+00  0.0000000000000000e+00 0.0000000000000000e+00 0.0000000000000000e+00  0.0000000000000000e+00 0.0000000000000000e+00 0.0000000000000000e+00  0.0000000000000000e+00 0.0000000000000000e+00 0.0000000000000000e+00  0.0000000000000000e+00 0.0000000000000000e+00 0.0000000000000000e+00  0.0000000000000000e+00 0.0000000000000000e+00 0.0000000000000000e+00  0.0000000000000000e+00 0.0000000000000000e+00 0.0000000000000000e+00  0.0000000000000000e+00 0.0000000000000000e+00 0.0000000000000000e+00  0.0000000000000000e+00 0.0000000000000000e+00 0.0000000000000000e+00  0.0000000000000000e+00 0.0000000000000000e+00 0.0000000000000000e+00  0.0000000000000000e+00 0.0000000000000000e+00 0.0000000000000000e+00  0.0000000000000000e+00 0.0000000000000000e+00 0.0000000000000000e+00  0.0000000000000000e+00 0.0000000000000000e+00 0.0000000000000000e+00  0.0000000000000000e+00 0.0000000000000000e+00 0.0000000000000000e+00  1.1259591940200191e+00 -1.1487408895321654e-04 0.0000000000000000e+00  1.2059167604635364e+00 -1.4112425982229824e-04 0.0000000000000000e+00  1.2059071142791489e+00 -6.8586522164766717e-05 0.0000000000000000e+00  1.1261830322423438e+00 -1.2355463088129683e-04 0.0000000000000000e+00  0.0000000000000000e+00 0.0000000000000000e+00 0.0000000000000000e+00  0.0000000000000000e+00 0.0000000000000000e+00 0.0000000000000000e+00  0.0000000000000000e+00 0.0000000000000000e+00 0.0000000000000000e+00  0.0000000000000000e+00 0.0000000000000000e+00 0.0000000000000000e+00  0.0000000000000000e+00 0.0000000000000000e+00 0.0000000000000000e+00  0.0000000000000000e+00 0.0000000000000000e+00 0.0000000000000000e+00  0.0000000000000000e+00 0.0000000000000000e+00 0.0000000000000000e+00  0.0000000000000000e+00 0.0000000000000000e+00 0.0000000000000000e+00  0.0000000000000000e+00 0.0000000000000000e+00 0.0000000000000000e+00  0.0000000000000000e+00 0.0000000000000000e+00 0.0000000000000000e+00  0.0000000000000000e+00 0.0000000000000000e+00 0.0000000000000000e+00  0.0000000000000000e+00 0.0000000000000000e+00 0.0000000000000000e+00  0.0000000000000000e+00 0.0000000000000000e+00 0.0000000000000000e+00  0.0000000000000000e+00 0.0000000000000000e+00 0.0000000000000000e+00  0.0000000000000000e+00 0.0000000000000000e+00 0.0000000000000000e+00  0.0000000000000000e+00 0.0000000000000000e+00 0.0000000000000000e+00  0.0000000000000000e+00 0.0000000000000000e+00 0.0000000000000000e+00  0.0000000000000000e+00 0.0000000000000000e+00 0.0000000000000000e+00  0.0000000000000000e+00 0.0000000000000000e+00 0.0000000000000000e+00  0.0000000000000000e+00 0.0000000000000000e+00 0.0000000000000000e+00  0.0000000000000000e+00 0.0000000000000000e+00 0.0000000000000000e+00  9.6000004812102946e-01 0.0000000000000000e+00 0.0000000000000000e+00  1.4400000721828665e+00 0.0000000000000000e+00 0.0000000000000000e+00  1.4400000721854447e+00 0.0000000000000000e+00 0.0000000000000000e+00  9.6000004812466888e-01 0.0000000000000000e+00 0.0000000000000000e+00  -8.4202050897665290e-02 -1.3905529785955670e-01 0.0000000000000000e+00  2.2681894275881531e-01 2.1758480381246344e-02 0.0000000000000000e+00  1.5654215744346187e-01 1.1835697692648556e-01 0.0000000000000000e+00  1.8485526952398237e+00 -7.7978796248362583e-02 0.0000000000000000e+00  1.9731177693220616e+00 1.2893799182557875e-01 0.0000000000000000e+00  1.4705849094892431e+00 2.2846401888174897e-01 0.0000000000000000e+00  1.3169469376397807e+00 3.5893437111267340e-01 0.0000000000000000e+00  1.3319969990288489e+00 2.6274864727610853e-01 0.0000000000000000e+00  1.3055036891971674e+00 -6.9843933948253487e-02 0.0000000000000000e+00  1.2628077180582300e+00 -3.2396642689053590e-01 0.0000000000000000e+00  1.4078373743819004e+00 -3.7678275903655817e-01 0.0000000000000000e+00  -2.5918622310452333e-01 2.4861945559118241e-02 0.0000000000000000e+00  1.2065123110984761e+00 -3.4745128846239966e-05 0.0000000000000000e+00  3.5246093946513769e-02 -7.2498223120886371e-02 0.0000000000000000e+00  -8.8195294733918142e-02 1.3899700649329647e-01 0.0000000000000000e+00  8.2713305265743420e-01 2.2858665570000120e-01 0.0000000000000000e+00  2.3085312315958995e-01 7.7835204497392008e-02 0.0000000000000000e+00  1.8804121892691672e+00 -2.4660627087451514e-01 0.0000000000000000e+00  1.2066242962753555e+00 -4.3622563845297678e-04 0.0000000000000000e+00  1.2031498905185165e+00 -2.1913335826192048e-02 0.0000000000000000e+00  1.2679019412515729e+00 -6.6038724321353104e-02 0.0000000000000000e+00  1.6891520460516161e+00 2.2694503934351343e-01 0.0000000000000000e+00  1.1673738353880772e+00 6.2168700766539381e-02 0.0000000000000000e+00  8.9068988354946466e-01 -6.4098404670723377e-02 0.0000000000000000e+00  1.9947633900131845e+00 4.5981431507282972e-01 0.0000000000000000e+00  1.8621454897563623e+00 6.5637516377831373e-01 0.0000000000000000e+00  1.4928973264039895e+00 7.8246673614059892e-01 0.0000000000000000e+00  1.1472193980959642e+00 5.6753588910551211e-01 0.0000000000000000e+00  9.3884798541962555e-01 1.1106383405065873e-01 0.0000000000000000e+00  9.8249184106843712e-01 -3.9328407430309748e-01 0.0000000000000000e+00  1.2871121337014564e+00 -6.9688331262210157e-01 0.0000000000000000e+00  1.6443727218134983e+00 -7.1830822607341738e-01 0.0000000000000000e+00  1.9011754323090602e+00 -5.3171723273425531e-01 0.0000000000000000e+00  1.2064086796548104e+00 3.0976949156021076e-05 0.0000000000000000e+00  1.4397712618547964e+00 -4.1759223722616048e-02 0.0000000000000000e+00  1.2062065755978522e+00 -3.6236664553953466e-03 0.0000000000000000e+00  -1.4572605808137457e-01 -1.9800685621469316e-03 0.0000000000000000e+00  1.8576783855828407e+00 2.2175646200342319e-01 0.0000000000000000e+00  1.6461777598169058e+00 -2.5556929583646615e-01 0.0000000000000000e+00  1.8812261070985923e+00 -1.1464508410401213e-01 0.0000000000000000e+00  1.1999855026507336e+00 -7.9841835081216874e-05 0.0000000000000000e+00  1.2025253108785154e+00 -9.2325768415140702e-05 0.0000000000000000e+00  -8.3643845108283502e-02 1.3715725144327046e-01 0.0000000000000000e+00  1.6681533911702526e+00 -1.6575304822422415e-01 0.0000000000000000e+00  1.1989081783246553e+00 -4.4685605143985436e-04 0.0000000000000000e+00  1.2141799852567303e+00 -3.1705152732024774e-02 0.0000000000000000e+00  1.4350493326033040e+00 -2.9884037385944525e-02 0.0000000000000000e+00  1.1982041705643762e+00 1.4112230537329970e-05 0.0000000000000000e+00  1.2023845654524064e+00 -9.2530030068835988e-06 0.0000000000000000e+00  -8.5956550574943183e-02 -7.8021519527833927e-02 0.0000000000000000e+00  1.2707140795386851e+00 1.4923159370006326e-02 0.0000000000000000e+00  1.3018617346256476e+00 1.0346458915236896e-01 0.0000000000000000e+00  1.0787930566858803e+00 1.7302642984910574e-01 0.0000000000000000e+00  8.3104452317596622e-01 1.7908425844756976e-01 0.0000000000000000e+00  1.7418950097005621e+00 8.6730001831945569e-01 0.0000000000000000e+00  1.2348082425000879e+00 9.5102633089547628e-01 0.0000000000000000e+00  7.6044843297765052e-01 5.1969591916418778e-01 0.0000000000000000e+00  6.4417869779238501e-01 -1.8915341322500773e-01 0.0000000000000000e+00  2.0025071159949870e+00 6.0868346937496376e-01 0.0000000000000000e+00  1.9053533553954922e+00 -3.0758212204742491e-01 0.0000000000000000e+00  1.4448762538766760e+00 2.2056711598464970e-01 0.0000000000000000e+00  9.6139956214125055e-01 -7.9315145289431488e-01 0.0000000000000000e+00  1.4019324666420123e+00 -1.4621645755081316e-02 0.0000000000000000e+00  1.1904949386875840e+00 3.4532150690110039e-03 0.0000000000000000e+00  1.1962806493849161e+00 7.9929778948504914e-05 0.0000000000000000e+00  1.1802621295331384e+00 1.1313142263765723e-05 0.0000000000000000e+00  2.2723247346157424e-01 5.2400099480599274e-02 0.0000000000000000e+00  -6.1805425322860895e-02 1.3107198475472470e-01 0.0000000000000000e+00  -6.4849690120194897e-02 6.9318296814673247e-02 0.0000000000000000e+00  1.8007593474088837e+00 -2.8224256787467905e-01 0.0000000000000000e+00  1.8500873850909434e+00 4.2874035891863414e-02 0.0000000000000000e+00  -1.6680870786131431e-03 -7.8913196274877861e-02 0.0000000000000000e+00  1.5055971247482534e+00 -1.0391416184570004e+00 0.0000000000000000e+00  1.5011470915612803e+00 -1.1694847245899315e-01 0.0000000000000000e+00  4.0313545772760084e-01 8.6091504530224947e-02 0.0000000000000000e+00  1.6051564821777458e+00 3.5730547359011572e-01 0.0000000000000000e+00  1.4289291863399294e+00 -3.7104201839242325e-02 0.0000000000000000e+00  1.1908148820947322e+00 -6.1099940316352739e-04 0.0000000000000000e+00  1.1939485315807790e+00 -1.3649182389691259e-03 0.0000000000000000e+00  1.1747974202330220e+00 -1.1935196918682013e-04 0.0000000000000000e+00  4.2459357627742661e-01 -3.4720263740051202e-02 0.0000000000000000e+00  1.6950230933476425e+00 -3.4288092485639937e-01 0.0000000000000000e+00  -6.2301140116229857e-02 -9.9499125085901766e-02 0.0000000000000000e+00  1.5090184214658233e+00 1.1204006505011623e+00 0.0000000000000000e+00  -4.9562250821912048e-02 -1.7410886439502980e-02 0.0000000000000000e+00  1.8695157884176954e+00 7.7452221213205241e-01 0.0000000000000000e+00  8.4256122624309515e-01 9.2952573576594233e-01 0.0000000000000000e+00  4.2980407926862291e-01 2.0674652057360293e-01 0.0000000000000000e+00  1.2467894622045859e+00 3.6818372529227018e-02 0.0000000000000000e+00  1.2065621114290326e+00 -9.0339887559269560e-05 0.0000000000000000e+00  1.3174379393986420e+00 5.0215909714140923e-02 0.0000000000000000e+00  1.3486777471647513e+00 2.5185565802077414e-01 0.0000000000000000e+00  -5.7911586191869778e-02 8.5431365149908414e-02 0.0000000000000000e+00  5.9253429395549218e-01 -6.2216708737825699e-01 0.0000000000000000e+00  1.0420759794704297e+00 -8.1729389503954655e-02 0.0000000000000000e+00  1.9310927513018250e+00 -7.9956291254346767e-01 0.0000000000000000e+00  1.1704226100480397e+00 -8.0790469353807709e-05 0.0000000000000000e+00  2.6176199368822817e-01 3.3584729273462080e-02 0.0000000000000000e+00  -4.9215232857112323e-01 6.8802862267796860e-02 0.0000000000000000e+00  1.1573956178504163e+00 -9.6985404515307350e-02 0.0000000000000000e+00  1.1584210997134827e+00 -1.0819870139159600e+00 0.0000000000000000e+00  1.3191655740143247e+00 -1.3489908156935485e-01 0.0000000000000000e+00  8.8387433715702179e-01 -1.1221902287711669e-01 0.0000000000000000e+00  1.1602116548522177e+00 -1.2489471520520719e-02 0.0000000000000000e+00  7.0061128083790192e-01 -5.9866307694410856e-02 0.0000000000000000e+00  4.0384374282004740e-03 -5.5229824211590478e-02 0.0000000000000000e+00  1.4275473003271446e+00 8.8320890068994240e-02 0.0000000000000000e+00  1.7798959086234729e+00 -5.1426621517773374e-01 0.0000000000000000e+00  1.0139122377549998e+00 9.3460315665466046e-02 0.0000000000000000e+00  1.7615738361839497e+00 -9.9726982977125900e-01 0.0000000000000000e+00  1.1171463536582995e+00 9.6295061800644150e-05 0.0000000000000000e+00  1.5548272073261118e+00 1.3048064333060657e-02 0.0000000000000000e+00  8.0316812966701023e-01 6.1752886573032434e-02 0.0000000000000000e+00  1.4139851299353714e+00 8.8983269701637002e-02 0.0000000000000000e+00  1.0383451458130621e+00 1.6833007150918050e-01 0.0000000000000000e+00  -1.7708465361343734e-01 9.0008103242160062e-02 0.0000000000000000e+00  1.1219155791757733e+00 -1.8727230091334022e-05 0.0000000000000000e+00  1.3634227210447354e+00 4.4206558393661627e-01 0.0000000000000000e+00  1.3415179951764371e+00 -8.1977220202124765e-02 0.0000000000000000e+00  1.2705470042186544e+00 1.6940548647416051e-01 0.0000000000000000e+00  1.2067427470134755e+00 -1.0421319765420717e-04 0.0000000000000000e+00  1.3036997379144557e+00 1.1688342515179795e-01 0.0000000000000000e+00  1.7170615767710513e+00 3.2638625369596758e-01 0.0000000000000000e+00  1.0443839749049539e+00 -4.4303109699355109e-02 0.0000000000000000e+00  1.9010909785088199e+00 7.7056310764260947e-03 0.0000000000000000e+00  -4.6197170032274353e-02 1.0552434241510862e-01 0.0000000000000000e+00  1.2066454064517851e+00 2.1108046641217888e-05 0.0000000000000000e+00  1.5805780704490351e+00 4.1878640872930917e-01 0.0000000000000000e+00  1.2021141886601319e+00 -5.2803316118810910e-03 0.0000000000000000e+00  1.3892084158186451e+00 -1.1299973253739011e-01 0.0000000000000000e+00  1.0974735417323329e+00 1.6617519893088870e-05 0.0000000000000000e+00  1.1766021238935611e+00 -1.2624947897777010e-02 0.0000000000000000e+00  1.1637306450685108e+00 1.5021922844042877e-02 0.0000000000000000e+00  1.6822677856173491e+00 2.3445269133351751e-02 0.0000000000000000e+00  -1.1885333335364750e-02 1.3781452441156511e-01 0.0000000000000000e+00  1.2679314523465741e+00 -3.1660318205940058e-01 0.0000000000000000e+00  9.1868118085210337e-01 1.1368361686487247e-01 0.0000000000000000e+00  1.2063798085864843e+00 -1.2691602295164062e-03 0.0000000000000000e+00  1.0991542469786821e+00 2.3278475165347083e-02 0.0000000000000000e+00  9.8156327133380794e-01 -3.0839435084938020e-02 0.0000000000000000e+00  1.0716059984875188e+00 -9.1054028063594964e-04 0.0000000000000000e+00  1.3735146069475506e+00 -2.1992446977884234e-01 0.0000000000000000e+00  1.9011580192451958e+00 2.4754711713231078e-01 0.0000000000000000e+00  8.4813445674952015e-01 1.4285600198756743e-01 0.0000000000000000e+00  1.0606555890922864e+00 -2.3809621940395723e-01 0.0000000000000000e+00  9.5425409129541894e-01 -1.5652384501673164e-01 0.0000000000000000e+00  -4.1342725674994901e-01 7.7239566634025328e-02 0.0000000000000000e+00  -1.9065532778054203e-01 1.2918577161316044e-01 0.0000000000000000e+00  1.0657074069033721e+00 -1.0635683885390650e-04 0.0000000000000000e+00  1.0359693723780123e+00 -1.2034382414879691e-04 0.0000000000000000e+00  3.9465741043191088e-01 -7.0125352281324473e-03 0.0000000000000000e+00  1.4405894862562274e+00 -4.9699912395807060e-02 0.0000000000000000e+00  6.0152205497691258e-01 -3.5292416280615541e-01 0.0000000000000000e+00  1.0539782782876201e+00 6.2577802715761414e-06 0.0000000000000000e+00  1.2058443816190456e+00 9.7959665652791021e-06 0.0000000000000000e+00  9.6955847761217928e-01 -7.9204552502035980e-05 0.0000000000000000e+00  2.7968148045202763e-02 -2.9169748882579487e-02 0.0000000000000000e+00  8.3822570462425372e-01 -5.2138719263495378e-02 0.0000000000000000e+00  1.0688615736775453e+00 3.3930240732254878e-04 0.0000000000000000e+00  1.0922304012730801e+00 1.1379411576927203e+00 0.0000000000000000e+00  1.6531230833724122e+00 9.5923033882220587e-01 0.0000000000000000e+00  4.5170284721052933e-01 6.5674281857071071e-01 0.0000000000000000e+00  3.0392008169545204e-01 -2.4251225653166758e-01 0.0000000000000000e+00  1.0207711931203016e+00 -2.2137609551036654e-03 0.0000000000000000e+00  -4.0198560410523373e-02 5.4361483201479245e-02 0.0000000000000000e+00  1.3758517080909780e+00 3.6843607176106968e-01 0.0000000000000000e+00  -6.1656458550279972e-02 -7.8713567189447456e-02 0.0000000000000000e+00  -4.0184256135558788e-02 -6.7675089194156185e-02 0.0000000000000000e+00  1.2020024120090400e+00 -1.0545455595472142e-04 0.0000000000000000e+00  1.2010024285455203e+00 -1.2084597272487227e-04 0.0000000000000000e+00  7.4070292671002624e-01 -9.8188892987313492e-01 0.0000000000000000e+00  1.0098876199449092e+00 -1.0646820988945517e-01 0.0000000000000000e+00  6.1181908183138223e-01 5.3046261141419700e-02 0.0000000000000000e+00  6.7137791849901318e-01 -5.3313678653728047e-02 0.0000000000000000e+00  9.4385378400730180e-01 -2.0752092651829271e-02 0.0000000000000000e+00  1.3789703541269709e+00 -4.7070711396763337e-01 0.0000000000000000e+00  2.2307535988111993e-01 -1.0708137722401355e-01 0.0000000000000000e+00  4.2510052821684741e-01 3.1368624542332676e-02 0.0000000000000000e+00  9.1500621847471642e-01 3.2081816227185348e-05 0.0000000000000000e+00  -1.2700722853414051e-01 -5.2969899883759025e-02 0.0000000000000000e+00  1.0334251983946745e+00 -2.9812242381127127e-05 0.0000000000000000e+00  1.5663112761096740e+00 1.1747914607335172e-01 0.0000000000000000e+00  9.6650369592150887e-01 -1.3890345000392747e-04 0.0000000000000000e+00  1.7551941803709452e+00 1.6908547731393939e-01 0.0000000000000000e+00  1.4586965760403043e+00 -1.2635014389622865e-02 0.0000000000000000e+00  1.5731796896460861e+00 5.9318524095770753e-01 0.0000000000000000e+00  8.8216615467097115e-01 -6.9093816393852148e-02 0.0000000000000000e+00  1.2056010880243009e+00 -1.4554397727832046e-04 0.0000000000000000e+00  1.2067554523013031e+00 -2.2855542253631637e-04 0.0000000000000000e+00  1.2056093779051982e+00 -3.1488332413924595e-04 0.0000000000000000e+00  1.2061314763551507e+00 -5.0607028938371507e-05 0.0000000000000000e+00  1.1899817012854279e+00 -2.0278840054542636e-05 0.0000000000000000e+00  1.1878496153129061e+00 -7.0600032043162758e-02 0.0000000000000000e+00  1.3337521335483551e+00 -3.6700398831356611e-02 0.0000000000000000e+00  1.2216791692104767e+00 1.1933121268170458e-02 0.0000000000000000e+00  1.2146520029132055e+00 -7.6201156577320114e-02 0.0000000000000000e+00  1.3949068013743897e+