<?xml version="1.0"?>
<VTKFile type="UnstructuredGrid"  version="0.1"  >
<UnstructuredGrid>
<Piece  NumberOfPoints="3852" NumberOfCells="7360">
<Points>
<DataArray  type="Float64"  NumberOfComponents="3"  format="ascii">0 0 0  0 0.41 0  2.2 0.41 0  2.2 0 0  0.2 0.15 0  0.15 0.2 0  0.2 0.25 0  0.25 0.2 0  0.2097545161007899 0.1509607359798352 0  0.219134171618224 0.153806023374423 0  0.2277785116509268 0.1584265193848371 0  0.2353553390592504 0.1646446609405956 0  0.2415734806150793 0.1722214883489481 0  0.2461939766255306 0.1808658283816641 0  0.249039264020151 0.1902454838991403 0  0.2490392640201666 0.2097545161007811 0  0.2461939766255869 0.2191341716182 0  0.2415734806151802 0.2277785116509009 0  0.2353553390594108 0.235355339059244 0  0.2277785116510524 0.2415734806150789 0  0.2191341716182962 0.2461939766255471 0  0.209754516100834 0.2490392640201561 0  0.1902454838992189 0.2490392640201666 0  0.1808658283818 0.2461939766255869 0  0.1722214883490991 0.2415734806151802 0  0.164644660940756 0.2353553390594108 0  0.1584265193849211 0.2277785116510524 0  0.1538060233744529 0.2191341716182962 0  0.150960735979844 0.209754516100834 0  0.1509607359798352 0.1902454838992101 0  0.153806023374423 0.180865828381776 0  0.1584265193848371 0.1722214883490732 0  0.1646446609405956 0.1646446609407496 0  0.1722214883489481 0.1584265193849207 0  0.1808658283816641 0.1538060233744694 0  0.1902454838991403 0.150960735979849 0  0.09999999999980318 0 0  0.1999999999996354 0 0  0.2999999999994593 0 0  0.3999999999991452 0 0  0.4999999999988309 0 0  0.599999999998495 0 0  0.6999999999982023 0 0  0.7999999999979096 0 0  0.8999999999975735 0 0  0.9999999999972848 0 0  1.099999999997053 0 0  1.199999999997309 0 0  1.299999999997566 0 0  1.399999999997821 0 0  1.49999999999809 0 0  1.599999999998377 0 0  1.69999999999859 0 0  1.799999999998877 0 0  1.899999999999145 0 0  1.999999999999386 0 0  2.099999999999693 0 0  2.2 0.08199999999981657 0  2.2 0.1639999999995688 0  2.2 0.2459999999995603 0  2.2 0.327999999999785 0  2.100000000000048 0.41 0  2.000000000000269 0.41 0  1.900000000000422 0.41 0  1.800000000000679 0.41 0  1.700000000000931 0.41 0  1.600000000001326 0.41 0  1.500000000001665 0.41 0  1.400000000002032 0.41 0  1.300000000002395 0.41 0  1.200000000002644 0.41 0  1.100000000002865 0.41 0  1.000000000002617 0.41 0  0.900000000002368 0.41 0  0.8000000000021192 0.41 0  0.7000000000018587 0.41 0  0.6000000000015786 0.41 0  0.5000000000013736 0.41 0  0.4000000000010933 0.41 0  0.3000000000008329 0.41 0  0.2000000000005997 0.41 0  0.1000000000003003 0.41 0  0 0.3280000000001975 0  0 0.2460000000004372 0  0 0.1640000000004437 0  0 0.08200000000021695 0  0.439039350479032 0.2235433210862024 0  0.3557293424662716 0.1539377961885917 0  0.3450132387946972 0.2399891502764809 0  0.2900756359792848 0.08507884665974728 0  0.2884413411145515 0.3059878288466324 0  0.2102195502178943 0.3385267178242456 0  0.137328909169326 0.3152847369018352 0  0.08490385663776813 0.2628976192695439 0  0.08063302347471875 0.188368977740952 0  0.1005937615311739 0.1162460982751979 0  0.1621860847198582 0.08598327887900903 0  0.3012864586130264 0.1926027915888804 0  1.999140000000448 0.2049999999995642 0  0.2742354912953259 0.1572259708446958 0  0.2871471664627305 0.2264358039321654 0  0.6542851578645765 0.1981889790488746 0  0.2651366296338276 0.2534562504463119 0  0.2371819217149928 0.0977949043027586 0  1.651678197071202 0.2145186615851206 0  1.349674714201118 0.2086119645070391 0  0.9627539291831038 0.2056711800839285 0  0.2360880502985623 0.2733043913425156 0  1.159884231859056 0.2050429640239795 0  0.2502927927237266 0.1358797630898622 0  0.2080582834123368 0.2835355213895352 0  0.1805439632603489 0.278338480667804 0  0.1486243506827335 0.2626014098227327 0  0.1266658889266303 0.2392753516137401 0  0.1179814841582247 0.2069380844236527 0  0.1225167704961566 0.1764957192948648 0  0.1357996569043286 0.1472158045151807 0  0.1619764829264572 0.126298308975886 0  0.1935640279204225 0.116654032325456 0  1.82457000000085 0.2346439024393236 0  0.8027657238591595 0.149277802568535 0  1.498563450727992 0.2632867809910664 0  0.2770405925201826 0.1924926016722167 0  0.470924801584011 0.09138612536042019 0  0.550693598792917 0.2898604497866635 0  0.381089831438127 0.3238078833671811 0  2.074516462495042 0.125705772324225 0  2.083599037046577 0.2769549245607841 0  0.2692296340100125 0.2210592970306522 0  0.7614733075682367 0.2839235561638241 0  1.536698221979284 0.1258192462655419 0  1.231809489345021 0.1282542717942667 0  1.054759157670174 0.1242749934189342 0  1.754535566851005 0.1223197024158991 0  1.90452621597739 0.1324728094649104 0  0.2672409321155211 0.178737994598723 0  1.254401531996246 0.2902808614622134 0  1.04350934597445 0.2986664252663559 0  0.0749710792305778 0.3208721925318313 0  0.5425289614095572 0.165152457827861 0  0.1663208394680799 0.2644065126118989 0  0.1471335176887868 0.2433864007787126 0  0.1345556779484054 0.219852318055334 0  0.131940483167677 0.1932967226753857 0  0.1941574795820069 0.2685534232066453 0  0.2226696214021025 0.1252682734732412 0  0.2193882214552426 0.2661718674478616 0  0.1396865053227576 0.1677617654469802 0  0.8749487631478475 0.295170577255529 0  1.424301820545763 0.1157348858866879 0  1.918515045506933 0.2902236143624367 0  1.744876807925144 0.306628844405037 0  0.2443979144126529 0.254353837216211 0  0.2569054246570621 0.2306780201523878 0  0.2632507216716993 0.2062296523407826 0  0.4609453431326088 0.3138128990490959 0  0.3578015395476809 0.08253318517696946 0  0.2529777826635333 0.155582948480283 0  0.1580369715200277 0.1487041474358234 0  0.652872088668587 0.3101079993636056 0  0.297147332491062 0.2558065812325378 0  0.6188247313471635 0.1101603945467571 0  0.8951149554961688 0.1123812542864208 0  1.592749166085722 0.2985190085719691 0  1.40420309431358 0.2992155383468256 0  1.649189110727275 0.1000387439201274 0  0.2301663900864273 0.1432830242131801 0  0.2064839406544439 0.1345771465164309 0  0.2548204572493643 0.1702022465417566 0  0.1606700828011604 0.2481621709908606 0  0.2605987457303776 0.1928909671966518 0  0.1826942838524941 0.2594610608897559 0  0.1456438338561037 0.2290651013631561 0  0.1387681034994896 0.2058679665896095 0  1.140902260384949 0.3081952438204152 0  2.123402621966431 0.2039515281261525 0  0.7272188829630218 0.1047469619375249 0  0.2060868819369127 0.2616331638469837 0  0.246763614216289 0.2411610007697902 0  0.1405961691450822 0.1819800466423126 0  1.149638048863541 0.08264492713269313 0  0.1809997740285721 0.1365020267363126 0  1.993198408221569 0.09755938404998035 0  0.2287111352430851 0.2547015941619741 0  0.3818716699056283 0.2060398770290832 0  0.39147508084147 0.2656155699545688 0  0.151201080877373 0.1608659990301362 0  0.0542521118046473 0.1382221876243976 0  0.06190301158313444 0.0685934933767465 0  1.317316039400266 0.1015983144534349 0  0.2176417279723976 0.1415790407114221 0  0.2401571300978209 0.1529210337009423 0  0.2618092962776011 0.3566662607419938 0  0.1941527094396574 0.1377969918002053 0  0.9590486261329707 0.3255353063371385 0  0.1708201090411339 0.1447474051814825 0  1.837592370686806 0.3302992722413595 0  0.3197015570210796 0.1212159119695666 0  0.4155281956943757 0.1409543952531078 0  0.0549491513262805 0.2307535706287103 0  0.1668210562270142 0.3605647861782867 0  0.2854688902460447 0.2093700809023571 0  2.013251581901814 0.3292746985146142 0  0.1192191106244758 0.2809901915857802 0  0.2487958366614321 0.04556523514103697 0  0.09061021186838321 0.2240174335271237 0  1.737143840576958 0.20912817770623 0  0.04515017012776967 0.2784708690411318 0  0.5347554646753627 0.08988970780599832 0  0.977104673723579 0.08241628541188413 0  0.336509991617897 0.2888965225844298 0  0.2569238041969055 0.2173711314485607 0  1.906541186051535 0.2125389476829634 0  0.1762338839607841 0.3102437166134606 0  1.449268841077636 0.201011295143529 0  0.8555371485878378 0.2099663446585434 0  1.837208236203613 0.07556229833764837 0  1.264402545318887 0.1992523923163096 0  1.068181074047183 0.2155119107017876 0  0.3158931250274742 0.3421721218291775 0  0.2731958384900449 0.2373435058667565 0  0.09875906484220501 0.1533097574901186 0  0.7355755433976705 0.2066339904079041 0  1.567440499207928 0.2049999999995983 0  1.329829828222916 0.3295825481537897 0  0.8214190147401245 0.07894167681990104 0  1.525459989258997 0.3394220200696043 0  0.1990897327079506 0.06300531675246424 0  0.244701762210989 0.3062404318132603 0  0.1033853772622983 0.3551443431224104 0  0.1178236825374896 0.07148041782551597 0  0.1558198999929474 0.04409380269139784 0  0.3389178979413869 0.198678920661321 0  0.310790717645908 0.2196004930752872 0  2.125022007676643 0.3402049371791425 0  2.130028889485561 0.06535501282233655 0  0.4821161335597635 0.1626909543876269 0  0.2838678108956019 0.1254276466262967 0  0.5062815929260498 0.2376271077316994 0  1.663059277092996 0.3422301118688678 0  1.82292665764828 0.1574809263836269 0  2.052538557905295 0.05717536030732174 0  0.3078251537889645 0.16056368457456 0  0.8108267070172145 0.3390047366820738 0  1.487254632568403 0.0703866281621833 0  0.155004430757041 0.2369517702015699 0  0.1725545045705267 0.2519594403466565 0  0.1445581653510352 0.2167994984574706 0  0.1420710285613199 0.1942747855116325 0  1.461861739291679 0.3471998553985149 0  0.2372128969196007 0.2453440460936858 0  0.1943665918892754 0.2580518465884657 0  0.2452139232912363 0.1629124725160763 0  0.2555786751481889 0.1825885041235872 0  2.14640473333793 0.2790222779730848 0  2.145589594789407 0.1282024626544199 0  0.1486651579751984 0.1726583296292201 0  0.550000000001476 0.3603327897285098 0  0.0505668771231032 0.3660023622363767 0  1.049999999997169 0.05217028468202135 0  1.244771793631775 0.05744029386223062 0  0.1356759337238615 0.1094447816941579 0  0.5872326411628903 0.2223148728195226 0  0.2168458206248643 0.2558159203714847 0  1.749999999998732 0.05166028789524129 0  0.2855257256666041 0.1763246086558152 0  1.92
[...]
<PointData  Vectors="f_22"> 
<DataArray  type="Float64"  Name="f_22"  NumberOfComponents="3" format="ascii">0.0000000000000000e+00 0.0000000000000000e+00 0.0000000000000000e+00  0.0000000000000000e+00 0.0000000000000000e+00 0.0000000000000000e+00  0.0000000000000000e+00 0.0000000000000000e+00 0.0000000000000000e+00  0.0000000000000000e+00 0.0000000000000000e+00 0.0000000000000000e+00  0.0000000000000000e+00 0.0000000000000000e+00 0.0000000000000000e+00  0.0000000000000000e+00 0.0000000000000000e+00 0.0000000000000000e+00  0.0000000000000000e+00 0.0000000000000000e+00 0.0000000000000000e+00  0.0000000000000000e+00 0.0000000000000000e+00 0.0000000000000000e+00  0.0000000000000000e+00 0.0000000000000000e+00 0.0000000000000000e+00  0.0000000000000000e+00 0.0000000000000000e+00 0.0000000000000000e+00  0.0000000000000000e+00 0.0000000000000000e+00 0.0000000000000000e+00  0.0000000000000000e+00 0.0000000000000000e+00 0.0000000000000000e+00  0.0000000000000000e+00 0.0000000000000000e+00 0.0000000000000000e+00  0.0000000000000000e+00 0.0000000000000000e+00 0.0000000000000000e+00  0.0000000000000000e+00 0.0000000000000000e+00 0.0000000000000000e+00  0.0000000000000000e+00 0.0000000000000000e+00 0.0000000000000000e+00  0.0000000000000000e+00 0.0000000000000000e+00 0.0000000000000000e+00  0.0000000000000000e+00 0.0000000000000000e+00 0.0000000000000000e+00  0.0000000000000000e+00 0.0000000000000000e+00 0.0000000000000000e+00  0.0000000000000000e+00 0.0000000000000000e+00 0.0000000000000000e+00  0.0000000000000000e+00 0.0000000000000000e+00 0.0000000000000000e+00  0.0000000000000000e+00 0.0000000000000000e+00 0.0000000000000000e+00  0.0000000000000000e+00 0.0000000000000000e+00 0.0000000000000000e+00  0.0000000000000000e+00 0.0000000000000000e+00 0.0000000000000000e+00  0.0000000000000000e+00 0.0000000000000000e+00 0.0000000000000000e+00  0.0000000000000000e+00 0.0000000000000000e+00 0.0000000000000000e+00  0.0000000000000000e+00 0.0000000000000000e+00 0.0000000000000000e+00  0.0000000000000000e+00 0.0000000000000000e+00 0.0000000000000000e+00  0.0000000000000000e+00 0.0000000000000000e+00 0.0000000000000000e+00  0.0000000000000000e+00 0.0000000000000000e+00 0.0000000000000000e+00  0.0000000000000000e+00 0.0000000000000000e+00 0.0000000000000000e+00  0.0000000000000000e+00 0.0000000000000000e+00 0.0000000000000000e+00  0.0000000000000000e+00 0.0000000000000000e+00 0.0000000000000000e+00  0.0000000000000000e+00 0.0000000000000000e+00 0.0000000000000000e+00  0.0000000000000000e+00 0.0000000000000000e+00 0.0000000000000000e+00  0.0000000000000000e+00 0.0000000000000000e+00 0.0000000000000000e+00  0.0000000000000000e+00 0.0000000000000000e+00 0.0000000000000000e+00  0.0000000000000000e+00 0.0000000000000000e+00 0.0000000000000000e+00  0.0000000000000000e+00 0.0000000000000000e+00 0.0000000000000000e+00  0.0000000000000000e+00 0.0000000000000000e+00 0.0000000000000000e+00  0.0000000000000000e+00 0.0000000000000000e+00 0.0000000000000000e+00  0.0000000000000000e+00 0.0000000000000000e+00 0.0000000000000000e+00  0.0000000000000000e+00 0.0000000000000000e+00 0.0000000000000000e+00  0.0000000000000000e+00 0.0000000000000000e+00 0.0000000000000000e+00  0.0000000000000000e+00 0.0000000000000000e+00 0.0000000000000000e+00  0.0000000000000000e+00 0.0000000000000000e+00 0.0000000000000000e+00  0.0000000000000000e+00 0.0000000000000000e+00 0.0000000000000000e+00  0.0000000000000000e+00 0.0000000000000000e+00 0.0000000000000000e+00  0.0000000000000000e+00 0.0000000000000000e+00 0.0000000000000000e+00  0.0000000000000000e+00 0.0000000000000000e+00 0.0000000000000000e+00  0.0000000000000000e+00 0.0000000000000000e+00 0.0000000000000000e+00  0.0000000000000000e+00 0.0000000000000000e+00 0.0000000000000000e+00  0.0000000000000000e+00 0.0000000000000000e+00 0.0000000000000000e+00  0.0000000000000000e+00 0.0000000000000000e+00 0.0000000000000000e+00  0.0000000000000000e+00 0.0000000000000000e+00 0.0000000000000000e+00  0.0000000000000000e+00 0.0000000000000000e+00 0.0000000000000000e+00  0.0000000000000000e+00 0.0000000000000000e+00 0.0000000000000000e+00  1.0822859200798460e+00 -8.4213554746148775e-04 0.0000000000000000e+00  1.2480853649520711e+00 -8.6501397700874047e-03 0.0000000000000000e+00  1.3011350048479717e+00 -1.6392872015817312e-02 0.0000000000000000e+00  1.0952510953750469e+00 -1.5979009672082520e-03 0.0000000000000000e+00  0.0000000000000000e+00 0.0000000000000000e+00 0.0000000000000000e+00  0.0000000000000000e+00 0.0000000000000000e+00 0.0000000000000000e+00  0.0000000000000000e+00 0.0000000000000000e+00 0.0000000000000000e+00  0.0000000000000000e+00 0.0000000000000000e+00 0.0000000000000000e+00  0.0000000000000000e+00 0.0000000000000000e+00 0.0000000000000000e+00  0.0000000000000000e+00 0.0000000000000000e+00 0.0000000000000000e+00  0.0000000000000000e+00 0.0000000000000000e+00 0.0000000000000000e+00  0.0000000000000000e+00 0.0000000000000000e+00 0.0000000000000000e+00  0.0000000000000000e+00 0.0000000000000000e+00 0.0000000000000000e+00  0.0000000000000000e+00 0.0000000000000000e+00 0.0000000000000000e+00  0.0000000000000000e+00 0.0000000000000000e+00 0.0000000000000000e+00  0.0000000000000000e+00 0.0000000000000000e+00 0.0000000000000000e+00  0.0000000000000000e+00 0.0000000000000000e+00 0.0000000000000000e+00  0.0000000000000000e+00 0.0000000000000000e+00 0.0000000000000000e+00  0.0000000000000000e+00 0.0000000000000000e+00 0.0000000000000000e+00  0.0000000000000000e+00 0.0000000000000000e+00 0.0000000000000000e+00  0.0000000000000000e+00 0.0000000000000000e+00 0.0000000000000000e+00  0.0000000000000000e+00 0.0000000000000000e+00 0.0000000000000000e+00  0.0000000000000000e+00 0.0000000000000000e+00 0.0000000000000000e+00  0.0000000000000000e+00 0.0000000000000000e+00 0.0000000000000000e+00  0.0000000000000000e+00 0.0000000000000000e+00 0.0000000000000000e+00  9.6000004396758931e-01 0.0000000000000000e+00 0.0000000000000000e+00  1.4400000659527061e+00 0.0000000000000000e+00 0.0000000000000000e+00  1.4400000659552850e+00 0.0000000000000000e+00 0.0000000000000000e+00  9.6000004397122884e-01 0.0000000000000000e+00 0.0000000000000000e+00  6.1749182187489471e-01 -4.5101099257931099e-01 0.0000000000000000e+00  2.0565091747763459e-01 3.3235309969742804e-01 0.0000000000000000e+00  3.2342315312777425e-01 2.6976075103837416e-01 0.0000000000000000e+00  1.7983871917100727e+00 -6.2188657990247401e-04 0.0000000000000000e+00  1.9681686027336809e+00 1.0767102664330699e-01 0.0000000000000000e+00  1.4627019676211921e+00 2.2150486594676849e-01 0.0000000000000000e+00  1.3133726523800568e+00 3.5485056250754426e-01 0.0000000000000000e+00  1.3311389771998043e+00 2.5675605428452530e-01 0.0000000000000000e+00  1.3067046369569821e+00 -7.5520123537183029e-02 0.0000000000000000e+00  1.2664493030042985e+00 -3.2442419508437081e-01 0.0000000000000000e+00  1.4118827132117757e+00 -3.6382832356320793e-01 0.0000000000000000e+00  -2.4587317081974491e-01 1.3250834328781608e-01 0.0000000000000000e+00  1.2337805260290655e+00 -9.3027230864138038e-03 0.0000000000000000e+00  7.3947855233719162e-02 -5.2637229604927317e-02 0.0000000000000000e+00  -6.4028740240847398e-02 1.7108259262756875e-01 0.0000000000000000e+00  1.3382567181996237e+00 8.2595751981891319e-01 0.0000000000000000e+00  2.2577519094248014e-01 6.2933461410842897e-02 0.0000000000000000e+00  1.8795361618291826e+00 -1.9573191277109928e-01 0.0000000000000000e+00  1.3997242983620364e+00 1.1459189924039678e-01 0.0000000000000000e+00  1.8120395881729803e+00 -3.8284741964278635e-01 0.0000000000000000e+00  1.3973535089527074e+00 -2.0072140612963979e-01 0.0000000000000000e+00  1.7075471532677546e+00 2.1856244389649326e-01 0.0000000000000000e+00  1.5514237991019117e+00 5.2305149182687798e-02 0.0000000000000000e+00  1.0263104018775302e+00 -3.8578061420469552e-02 0.0000000000000000e+00  1.9979677213739833e+00 4.5347416803600826e-01 0.0000000000000000e+00  1.8632834604706003e+00 6.5313282459413269e-01 0.0000000000000000e+00  1.4925603663804330e+00 7.7965820338921699e-01 0.0000000000000000e+00  1.1469089545018623e+00 5.6350154084726534e-01 0.0000000000000000e+00  9.3976596541541335e-01 1.0626100683348357e-01 0.0000000000000000e+00  9.8588660724287203e-01 -3.9757598467458372e-01 0.0000000000000000e+00  1.2948167454569472e+00 -6.9790139793611139e-01 0.0000000000000000e+00  1.6581496817200614e+00 -7.1068154648572002e-01 0.0000000000000000e+00  1.9194229438700898e+00 -5.0759155114758281e-01 0.0000000000000000e+00  1.3909806791837735e+00 -4.7791251320618698e-02 0.0000000000000000e+00  7.1757988371801329e-01 -8.4247902079219450e-02 0.0000000000000000e+00  1.3256284093336088e+00 3.5793640160171410e-03 0.0000000000000000e+00  -1.4266174446563615e-01 3.3873882604281688e-02 0.0000000000000000e+00  1.7541584923787972e+00 -4.4985958190220604e-04 0.0000000000000000e+00  1.2114225499402755e+00 -1.0127134492779805e-01 0.0000000000000000e+00  1.8519269013772308e+00 -1.9692649131961160e-01 0.0000000000000000e+00  1.2440093291124492e+00 8.6253883452151996e-03 0.0000000000000000e+00  1.2776716373010826e+00 5.9063765756517837e-03 0.0000000000000000e+00  -7.1283359171639721e-02 1.3962512369808872e-01 0.0000000000000000e+00  1.8767067297380104e+00 -2.6851018471243965e-01 0.0000000000000000e+00  1.4814601573122932e+00 -1.5745711269401093e-03 0.0000000000000000e+00  1.1492619811957767e+00 1.1103127565601728e-01 0.0000000000000000e+00  1.4844838733152534e+00 3.0124679208847827e-01 0.0000000000000000e+00  1.2192796844232587e+00 2.1017621815020291e-02 0.0000000000000000e+00  1.2237306057204278e+00 -5.2842509917277992e-02 0.0000000000000000e+00  -9.5979099986578248e-02 -6.5193564495223358e-02 0.0000000000000000e+00  1.4910301028664357e+00 -1.5393029127941707e-01 0.0000000000000000e+00  8.1383444837503982e-01 1.1567656429101531e-02 0.0000000000000000e+00  1.0770098049314087e+00 1.6842221125746040e-01 0.0000000000000000e+00  9.0402345019388963e-01 -3.0899454375275143e-01 0.0000000000000000e+00  1.7426778600848774e+00 8.6538012925150853e-01 0.0000000000000000e+00  1.2345784901167067e+00 9.4875066103667960e-01 0.0000000000000000e+00  7.6043935721133860e-01 5.1601548804470265e-01 0.0000000000000000e+00  6.4594024063592681e-01 -1.9381774932780987e-01 0.0000000000000000e+00  2.0071373370381997e+00 6.0636155658359780e-01 0.0000000000000000e+00  1.9608445080509569e+00 -2.7249201698712444e-01 0.0000000000000000e+00  1.4581849498697239e+00 2.1785225098719349e-01 0.0000000000000000e+00  9.6718999795810345e-01 -7.9753211668508950e-01 0.0000000000000000e+00  1.2578064599241281e+00 -1.4502736144710690e-01 0.0000000000000000e+00  1.3574489490516917e+00 -5.0074630881346789e-02 0.0000000000000000e+00  1.2603161026648209e+00 8.1168942394053596e-03 0.0000000000000000e+00  1.2583168580735742e+00 3.7520499415071212e-02 0.0000000000000000e+00  2.3096433064745311e-01 4.3840681202822085e-02 0.0000000000000000e+00  -5.7954643851856003e-02 1.0929579588391225e-01 0.0000000000000000e+00  -5.6178582241041178e-02 6.5207746121718910e-02 0.0000000000000000e+00  1.6112161923359862e+00 -4.0151888773136335e-01 0.0000000000000000e+00  1.6857720491393471e+00 1.0160548883352005e-01 0.0000000000000000e+00  3.2792130184011260e-02 -8.5115219537085798e-02 0.0000000000000000e+00  1.5195468500499583e+00 -1.0409613144750414e+00 0.0000000000000000e+00  1.2289857080788447e+00 2.3588203262895122e-01 0.0000000000000000e+00  4.1979273065104233e-01 9.7513787594776219e-02 0.0000000000000000e+00  1.7094612268140095e+00 5.3790251657760968e-01 0.0000000000000000e+00  1.0447699849749463e+00 -2.1522444067468610e-01 0.0000000000000000e+00  1.1861089989702311e+00 4.9892965987533303e-02 0.0000000000000000e+00  1.0866127876734226e+00 8.9978600917242427e-02 0.0000000000000000e+00  1.1362398784018075e+00 -6.7323104122607669e-02 0.0000000000000000e+00  5.0003346082390565e-01 -2.1244033799636592e-02 0.0000000000000000e+00  1.7647453802781243e+00 -3.2917900172359910e-01 0.0000000000000000e+00  -6.7584747579538224e-02 -1.1516372820159101e-01 0.0000000000000000e+00  1.5092918036380427e+00 1.1192938308567499e+00 0.0000000000000000e+00  -5.0591349894615403e-02 -2.2759476806942892e-02 0.0000000000000000e+00  1.8725938902962205e+00 7.7398724213835524e-01 0.0000000000000000e+00  8.4207632135741450e-01 9.2694542467658059e-01 0.0000000000000000e+00  4.3019377863288150e-01 2.0252956577409370e-01 0.0000000000000000e+00  1.2542106351111921e+00 2.4300220368352554e-02 0.0000000000000000e+00  1.2562342851354353e+00 2.4968194408748090e-02 0.0000000000000000e+00  1.0175719949624398e+00 -6.5447673363447131e-02 0.0000000000000000e+00  1.3567050302396644e+00 2.5111965546449949e-01 0.0000000000000000e+00  -5.9614460481190797e-02 6.8548140503881791e-02 0.0000000000000000e+00  5.9577585918080045e-01 -6.2751441411758768e-01 0.0000000000000000e+00  8.8666907627152602e-01 -5.0262170940858358e-02 0.0000000000000000e+00  1.9598135029101174e+00 -7.9253591564768022e-01 0.0000000000000000e+00  1.1754874784806402e+00 5.1088653875734299e-04 0.0000000000000000e+00  2.6658476504593592e-01 3.2867380012587745e-02 0.0000000000000000e+00  -2.5090839790566843e-01 3.9813771300599821e-01 0.0000000000000000e+00  1.5114876290808466e+00 -1.7350770220394121e-01 0.0000000000000000e+00  1.1678190505862369e+00 -1.0871775225361004e+00 0.0000000000000000e+00  1.3202667320739938e+00 -1.3872128726812794e-01 0.0000000000000000e+00  8.8492118991022861e-01 -1.1337669897110535e-01 0.0000000000000000e+00  1.0484392743533040e+00 -2.8497425918845416e-02 0.0000000000000000e+00  7.7964841685812025e-01 -4.9853685775682381e-02 0.0000000000000000e+00  3.1695007991433315e-02 -5.4544279511282975e-02 0.0000000000000000e+00  1.4112453555491471e+00 7.6505036350975622e-02 0.0000000000000000e+00  1.8344983424154004e+00 -5.0933139311721065e-01 0.0000000000000000e+00  9.4182270126830570e-01 8.4118028172075240e-02 0.0000000000000000e+00  1.7851257282068358e+00 -9.9893127251268199e-01 0.0000000000000000e+00  1.0601181569701472e+00 2.4461542593304533e-02 0.0000000000000000e+00  1.6927696464754720e+00 1.5963503623872419e-01 0.0000000000000000e+00  5.1165259004660113e-01 1.5398346850785402e-01 0.0000000000000000e+00  1.4139065150026051e+00 8.3144629101283993e-02 0.0000000000000000e+00  1.0307980895853306e+00 1.6534791489869599e-01 0.0000000000000000e+00  -1.5138589871492628e-01 1.3526831636520661e-01 0.0000000000000000e+00  1.0937156850616490e+00 -2.9627842627157472e-03 0.0000000000000000e+00  1.3617724569965961e+00 4.3732668583727197e-01 0.0000000000000000e+00  1.3034752511518197e+00 -5.3903326593016006e-02 0.0000000000000000e+00  1.2706649973939868e+00 1.6338520629514827e-01 0.0000000000000000e+00  1.2840479331485017e+00 1.3622760960584240e-01 0.0000000000000000e+00  1.3032232777027897e+00 1.1206241707470978e-01 0.0000000000000000e+00  1.8539069382238131e+00 2.3458604784404671e-01 0.0000000000000000e+00  1.1894553762929829e+00 1.4804246560414000e-01 0.0000000000000000e+00  1.9669330522406572e+00 -1.1992101775350190e-02 0.0000000000000000e+00  -3.6688949141320662e-02 8.1387014707928751e-02 0.0000000000000000e+00  1.2761665752066673e+00 -6.0099586729341334e-02 0.0000000000000000e+00  1.5774127297213343e+00 4.1407438909641947e-01 0.0000000000000000e+00  1.5178125570030205e+00 3.6474738184684871e-02 0.0000000000000000e+00  1.6037113310192619e+00 -7.8478231224899053e-01 0.0000000000000000e+00  1.0141736380846402e+00 -1.6911028925764002e-02 0.0000000000000000e+00  1.5549979435016039e+00 1.0167715489283195e-01 0.0000000000000000e+00  1.6010313448974585e+00 5.7701300572407344e-01 0.0000000000000000e+00  1.6606217832396262e+00 -4.3873654987900950e-03 0.0000000000000000e+00  -9.9129137632289008e-03 1.3642386130144996e-01 0.0000000000000000e+00  1.2712697082394699e+00 -3.2013270467006771e-01 0.0000000000000000e+00  1.1448866896835557e+00 6.0966667323504231e-01 0.0000000000000000e+00  1.4148986615863850e+00 -1.3780133097607752e-02 0.0000000000000000e+00  8.4887784389522181e-01 -1.2692978816673063e-02 0.0000000000000000e+00  8.8833316407667506e-01 -7.6024982349458425e-02 0.0000000000000000e+00  8.5195315161761587e-01 1.1866766505016795e-02 0.0000000000000000e+00  1.3655739949765491e+00 -1.9834176537938972e-01 0.0000000000000000e+00  1.8981060931932814e+00 2.3336054966983341e-01 0.0000000000000000e+00  8.4399511464011923e-01 1.4009523901750370e-01 0.0000000000000000e+00  1.0628451077779464e+00 -2.3431866325055356e-01 0.0000000000000000e+00  9.5088450723035745e-01 -1.4891836311521925e-01 0.0000000000000000e+00  -3.3777732217390860e-01 3.4158124244874466e-01 0.0000000000000000e+00  -1.3012309021335211e-01 2.3846554054233141e-01 0.0000000000000000e+00  1.0078074389575280e+00 -5.2350428702891566e-04 0.0000000000000000e+00  9.6106944454893772e-01 1.5586011121846749e-03 0.0000000000000000e+00  7.4906752089369033e-02 -5.0575072413816680e-01 0.0000000000000000e+00  1.6102969461703831e+00 2.9293665799773033e-02 0.0000000000000000e+00  1.0837148048677017e+00 -7.3765596293448887e-01 0.0000000000000000e+00  8.8211817011645599e-01 4.8735751584691019e-02 0.0000000000000000e+00  1.1806868262929806e+00 -1.7999464874987735e-02 0.0000000000000000e+00  8.8653995961615306e-01 1.5782492751653708e-03 0.0000000000000000e+00  2.9860838442825850e-02 9.4826722233804936e-02 0.0000000000000000e+00  1.0177761018003231e+00 -1.9884930666010014e-01 0.0000000000000000e+00  8.3880106368539276e-01 -3.3399341557419790e-02 0.0000000000000000e+00  1.0916936523296832e+00 1.1363269465804524e+00 0.0000000000000000e+00  1.6543665873887994e+00 9.5893109585859415e-01 0.0000000000000000e+00  4.5119255080008508e-01 6.5326461643831402e-01 0.0000000000000000e+00  3.0520093529575720e-01 -2.4775518204157279e-01 0.0000000000000000e+00  7.5238928103929559e-01 1.1411705751586149e-02 0.0000000000000000e+00  -4.0557959907057323e-02 4.9603794795036099e-02 0.0000000000000000e+00  1.3805470758360925e+00 3.6843930620875248e-01 0.0000000000000000e+00  -6.0787895260255527e-02 -9.3466583111991075e-02 0.0000000000000000e+00  -4.8250704217637552e-02 -8.4223607382536800e-02 0.0000000000000000e+00  1.2871174723910768e+00 -7.4802233237602107e-03 0.0000000000000000e+00  1.2285578465185532e+00 7.1450705532267221e-03 0.0000000000000000e+00  7.4652529569359338e-01 -9.8886121454104403e-01 0.0000000000000000e+00  8.6708368882722531e-01 8.5181978504528973e-03 0.0000000000000000e+00  6.1030480371977769e-01 5.0867133308937468e-02 0.0000000000000000e+00  6.0142993914032283e-01 3.2528886275820755e-02 0.0000000000000000e+00  6.3701148627230308e-01 4.1679319510025417e-02 0.0000000000000000e+00  1.3854484556174402e+00 -4.6564439464243101e-01 0.0000000000000000e+00  5.2192280200890451e-01 -1.6987587335538143e-01 0.0000000000000000e+00  4.2957505105966576e-01 3.1130740580310744e-02 0.0000000000000000e+00  7.7852410659633131e-01 -7.1016084897922447e-03 0.0000000000000000e+00  -1.4598926484210195e-01 2.4492558710697610e-03 0.0000000000000000e+00  9.5505622527681511e-01 -6.7206348069271072e-03 0.0000000000000000e+00  1.4278416123315092e+00 4.0414886674234707e-02 0.0000000000000000e+00  7.2675291184810953e-01 -3.4873023518263546e-02 0.0000000000000000e+00  1.7769076053507891e+00 1.5396911657195061e-01 0.0000000000000000e+00  1.4589560855015853e+00 -1.7230825335602988e-02 0.0000000000000000e+00  1.5719422736828634e+00 5.8958941412547783e-01 0.0000000000000000e+00  1.3326608375117110e+00 -1.1411042001481758e-01 0.0000000000000000e+00  1.3310221178354904e+00 -1.2074815435748629e-02 0.0000000000000000e+00  1.3389489336243938e+00 1.0532196053248534e-01 0.0000000000000000e+00  1.4236586327599081e+00 -1.1836596277511255e-02 0.0000000000000000e+00  1.2545340902808446e+00 8.1619099762395939e-02 0.0000000000000000e+00  1.2207530383781651e+00 -1.9867707133051620e-02 0.0000000000000000e+00  1.0871783394558412e+00 -4.3365507365065552e-03 0.0000000000000000e+00  1.2053279984308958e+00 -1.0268740622794965e-01 0.0000000000000000e+00  1.2845943819280952e+00 -3.0211590940653201e-02 0.0000000000000000e+00  9.9778397855270295e-01 5.1974947645721543e-03 0.0000000000000000e+00  1.5655956116341352e+00 2.697398342632