<?xml version="1.0"?>
<VTKFile type="UnstructuredGrid"  version="0.1"  >
<UnstructuredGrid>
<Piece  NumberOfPoints="3852" NumberOfCells="7360">
<Points>
<DataArray  type="Float64"  NumberOfComponents="3"  format="ascii">0 0 0  0 0.41 0  2.2 0.41 0  2.2 0 0  0.2 0.15 0  0.15 0.2 0  0.2 0.25 0  0.25 0.2 0  0.2097545161007899 0.1509607359798352 0  0.219134171618224 0.153806023374423 0  0.2277785116509268 0.1584265193848371 0  0.2353553390592504 0.1646446609405956 0  0.2415734806150793 0.1722214883489481 0  0.2461939766255306 0.1808658283816641 0  0.249039264020151 0.1902454838991403 0  0.2490392640201666 0.2097545161007811 0  0.2461939766255869 0.2191341716182 0  0.2415734806151802 0.2277785116509009 0  0.2353553390594108 0.235355339059244 0  0.2277785116510524 0.2415734806150789 0  0.2191341716182962 0.2461939766255471 0  0.209754516100834 0.2490392640201561 0  0.1902454838992189 0.2490392640201666 0  0.1808658283818 0.2461939766255869 0  0.1722214883490991 0.2415734806151802 0  0.164644660940756 0.2353553390594108 0  0.1584265193849211 0.2277785116510524 0  0.1538060233744529 0.2191341716182962 0  0.150960735979844 0.209754516100834 0  0.1509607359798352 0.1902454838992101 0  0.153806023374423 0.180865828381776 0  0.1584265193848371 0.1722214883490732 0  0.1646446609405956 0.1646446609407496 0  0.1722214883489481 0.1584265193849207 0  0.1808658283816641 0.1538060233744694 0  0.1902454838991403 0.150960735979849 0  0.09999999999980318 0 0  0.1999999999996354 0 0  0.2999999999994593 0 0  0.3999999999991452 0 0  0.4999999999988309 0 0  0.599999999998495 0 0  0.6999999999982023 0 0  0.7999999999979096 0 0  0.8999999999975735 0 0  0.9999999999972848 0 0  1.099999999997053 0 0  1.199999999997309 0 0  1.299999999997566 0 0  1.399999999997821 0 0  1.49999999999809 0 0  1.599999999998377 0 0  1.69999999999859 0 0  1.799999999998877 0 0  1.899999999999145 0 0  1.999999999999386 0 0  2.099999999999693 0 0  2.2 0.08199999999981657 0  2.2 0.1639999999995688 0  2.2 0.2459999999995603 0  2.2 0.327999999999785 0  2.100000000000048 0.41 0  2.000000000000269 0.41 0  1.900000000000422 0.41 0  1.800000000000679 0.41 0  1.700000000000931 0.41 0  1.600000000001326 0.41 0  1.500000000001665 0.41 0  1.400000000002032 0.41 0  1.300000000002395 0.41 0  1.200000000002644 0.41 0  1.100000000002865 0.41 0  1.000000000002617 0.41 0  0.900000000002368 0.41 0  0.8000000000021192 0.41 0  0.7000000000018587 0.41 0  0.6000000000015786 0.41 0  0.5000000000013736 0.41 0  0.4000000000010933 0.41 0  0.3000000000008329 0.41 0  0.2000000000005997 0.41 0  0.1000000000003003 0.41 0  0 0.3280000000001975 0  0 0.2460000000004372 0  0 0.1640000000004437 0  0 0.08200000000021695 0  0.439039350479032 0.2235433210862024 0  0.3557293424662716 0.1539377961885917 0  0.3450132387946972 0.2399891502764809 0  0.2900756359792848 0.08507884665974728 0  0.2884413411145515 0.3059878288466324 0  0.2102195502178943 0.3385267178242456 0  0.137328909169326 0.3152847369018352 0  0.08490385663776813 0.2628976192695439 0  0.08063302347471875 0.188368977740952 0  0.1005937615311739 0.1162460982751979 0  0.1621860847198582 0.08598327887900903 0  0.3012864586130264 0.1926027915888804 0  1.999140000000448 0.2049999999995642 0  0.2742354912953259 0.1572259708446958 0  0.2871471664627305 0.2264358039321654 0  0.6542851578645765 0.1981889790488746 0  0.2651366296338276 0.2534562504463119 0  0.2371819217149928 0.0977949043027586 0  1.651678197071202 0.2145186615851206 0  1.349674714201118 0.2086119645070391 0  0.9627539291831038 0.2056711800839285 0  0.2360880502985623 0.2733043913425156 0  1.159884231859056 0.2050429640239795 0  0.2502927927237266 0.1358797630898622 0  0.2080582834123368 0.2835355213895352 0  0.1805439632603489 0.278338480667804 0  0.1486243506827335 0.2626014098227327 0  0.1266658889266303 0.2392753516137401 0  0.1179814841582247 0.2069380844236527 0  0.1225167704961566 0.1764957192948648 0  0.1357996569043286 0.1472158045151807 0  0.1619764829264572 0.126298308975886 0  0.1935640279204225 0.116654032325456 0  1.82457000000085 0.2346439024393236 0  0.8027657238591595 0.149277802568535 0  1.498563450727992 0.2632867809910664 0  0.2770405925201826 0.1924926016722167 0  0.470924801584011 0.09138612536042019 0  0.550693598792917 0.2898604497866635 0  0.381089831438127 0.3238078833671811 0  2.074516462495042 0.125705772324225 0  2.083599037046577 0.2769549245607841 0  0.2692296340100125 0.2210592970306522 0  0.7614733075682367 0.2839235561638241 0  1.536698221979284 0.1258192462655419 0  1.231809489345021 0.1282542717942667 0  1.054759157670174 0.1242749934189342 0  1.754535566851005 0.1223197024158991 0  1.90452621597739 0.1324728094649104 0  0.2672409321155211 0.178737994598723 0  1.254401531996246 0.2902808614622134 0  1.04350934597445 0.2986664252663559 0  0.0749710792305778 0.3208721925318313 0  0.5425289614095572 0.165152457827861 0  0.1663208394680799 0.2644065126118989 0  0.1471335176887868 0.2433864007787126 0  0.1345556779484054 0.219852318055334 0  0.131940483167677 0.1932967226753857 0  0.1941574795820069 0.2685534232066453 0  0.2226696214021025 0.1252682734732412 0  0.2193882214552426 0.2661718674478616 0  0.1396865053227576 0.1677617654469802 0  0.8749487631478475 0.295170577255529 0  1.424301820545763 0.1157348858866879 0  1.918515045506933 0.2902236143624367 0  1.744876807925144 0.306628844405037 0  0.2443979144126529 0.254353837216211 0  0.2569054246570621 0.2306780201523878 0  0.2632507216716993 0.2062296523407826 0  0.4609453431326088 0.3138128990490959 0  0.3578015395476809 0.08253318517696946 0  0.2529777826635333 0.155582948480283 0  0.1580369715200277 0.1487041474358234 0  0.652872088668587 0.3101079993636056 0  0.297147332491062 0.2558065812325378 0  0.6188247313471635 0.1101603945467571 0  0.8951149554961688 0.1123812542864208 0  1.592749166085722 0.2985190085719691 0  1.40420309431358 0.2992155383468256 0  1.649189110727275 0.1000387439201274 0  0.2301663900864273 0.1432830242131801 0  0.2064839406544439 0.1345771465164309 0  0.2548204572493643 0.1702022465417566 0  0.1606700828011604 0.2481621709908606 0  0.2605987457303776 0.1928909671966518 0  0.1826942838524941 0.2594610608897559 0  0.1456438338561037 0.2290651013631561 0  0.1387681034994896 0.2058679665896095 0  1.140902260384949 0.3081952438204152 0  2.123402621966431 0.2039515281261525 0  0.7272188829630218 0.1047469619375249 0  0.2060868819369127 0.2616331638469837 0  0.246763614216289 0.2411610007697902 0  0.1405961691450822 0.1819800466423126 0  1.149638048863541 0.08264492713269313 0  0.1809997740285721 0.1365020267363126 0  1.993198408221569 0.09755938404998035 0  0.2287111352430851 0.2547015941619741 0  0.3818716699056283 0.2060398770290832 0  0.39147508084147 0.2656155699545688 0  0.151201080877373 0.1608659990301362 0  0.0542521118046473 0.1382221876243976 0  0.06190301158313444 0.0685934933767465 0  1.317316039400266 0.1015983144534349 0  0.2176417279723976 0.1415790407114221 0  0.2401571300978209 0.1529210337009423 0  0.2618092962776011 0.3566662607419938 0  0.1941527094396574 0.1377969918002053 0  0.9590486261329707 0.3255353063371385 0  0.1708201090411339 0.1447474051814825 0  1.837592370686806 0.3302992722413595 0  0.3197015570210796 0.1212159119695666 0  0.4155281956943757 0.1409543952531078 0  0.0549491513262805 0.2307535706287103 0  0.1668210562270142 0.3605647861782867 0  0.2854688902460447 0.2093700809023571 0  2.013251581901814 0.3292746985146142 0  0.1192191106244758 0.2809901915857802 0  0.2487958366614321 0.04556523514103697 0  0.09061021186838321 0.2240174335271237 0  1.737143840576958 0.20912817770623 0  0.04515017012776967 0.2784708690411318 0  0.5347554646753627 0.08988970780599832 0  0.977104673723579 0.08241628541188413 0  0.336509991617897 0.2888965225844298 0  0.2569238041969055 0.2173711314485607 0  1.906541186051535 0.2125389476829634 0  0.1762338839607841 0.3102437166134606 0  1.449268841077636 0.201011295143529 0  0.8555371485878378 0.2099663446585434 0  1.837208236203613 0.07556229833764837 0  1.264402545318887 0.1992523923163096 0  1.068181074047183 0.2155119107017876 0  0.3158931250274742 0.3421721218291775 0  0.2731958384900449 0.2373435058667565 0  0.09875906484220501 0.1533097574901186 0  0.7355755433976705 0.2066339904079041 0  1.567440499207928 0.2049999999995983 0  1.329829828222916 0.3295825481537897 0  0.8214190147401245 0.07894167681990104 0  1.525459989258997 0.3394220200696043 0  0.1990897327079506 0.06300531675246424 0  0.244701762210989 0.3062404318132603 0  0.1033853772622983 0.3551443431224104 0  0.1178236825374896 0.07148041782551597 0  0.1558198999929474 0.04409380269139784 0  0.3389178979413869 0.198678920661321 0  0.310790717645908 0.2196004930752872 0  2.125022007676643 0.3402049371791425 0  2.130028889485561 0.06535501282233655 0  0.4821161335597635 0.1626909543876269 0  0.2838678108956019 0.1254276466262967 0  0.5062815929260498 0.2376271077316994 0  1.663059277092996 0.3422301118688678 0  1.82292665764828 0.1574809263836269 0  2.052538557905295 0.05717536030732174 0  0.3078251537889645 0.16056368457456 0  0.8108267070172145 0.3390047366820738 0  1.487254632568403 0.0703866281621833 0  0.155004430757041 0.2369517702015699 0  0.1725545045705267 0.2519594403466565 0  0.1445581653510352 0.2167994984574706 0  0.1420710285613199 0.1942747855116325 0  1.461861739291679 0.3471998553985149 0  0.2372128969196007 0.2453440460936858 0  0.1943665918892754 0.2580518465884657 0  0.2452139232912363 0.1629124725160763 0  0.2555786751481889 0.1825885041235872 0  2.14640473333793 0.2790222779730848 0  2.145589594789407 0.1282024626544199 0  0.1486651579751984 0.1726583296292201 0  0.550000000001476 0.3603327897285098 0  0.0505668771231032 0.3660023622363767 0  1.049999999997169 0.05217028468202135 0  1.244771793631775 0.05744029386223062 0  0.1356759337238615 0.1094447816941579 0  0.5872326411628903 0.2223148728195226 0  0.2168458206248643 0.2558159203714847 0  1.749999999998732 0.05166028789524129 0  0.2855257256666041 0.1763246086558152 0  1.92
[...]
<PointData  Vectors="f_22"> 
<DataArray  type="Float64"  Name="f_22"  NumberOfComponents="3" format="ascii">0.0000000000000000e+00 0.0000000000000000e+00 0.0000000000000000e+00  0.0000000000000000e+00 0.0000000000000000e+00 0.0000000000000000e+00  0.0000000000000000e+00 0.0000000000000000e+00 0.0000000000000000e+00  0.0000000000000000e+00 0.0000000000000000e+00 0.0000000000000000e+00  0.0000000000000000e+00 0.0000000000000000e+00 0.0000000000000000e+00  0.0000000000000000e+00 0.0000000000000000e+00 0.0000000000000000e+00  0.0000000000000000e+00 0.0000000000000000e+00 0.0000000000000000e+00  0.0000000000000000e+00 0.0000000000000000e+00 0.0000000000000000e+00  0.0000000000000000e+00 0.0000000000000000e+00 0.0000000000000000e+00  0.0000000000000000e+00 0.0000000000000000e+00 0.0000000000000000e+00  0.0000000000000000e+00 0.0000000000000000e+00 0.0000000000000000e+00  0.0000000000000000e+00 0.0000000000000000e+00 0.0000000000000000e+00  0.0000000000000000e+00 0.0000000000000000e+00 0.0000000000000000e+00  0.0000000000000000e+00 0.0000000000000000e+00 0.0000000000000000e+00  0.0000000000000000e+00 0.0000000000000000e+00 0.0000000000000000e+00  0.0000000000000000e+00 0.0000000000000000e+00 0.0000000000000000e+00  0.0000000000000000e+00 0.0000000000000000e+00 0.0000000000000000e+00  0.0000000000000000e+00 0.0000000000000000e+00 0.0000000000000000e+00  0.0000000000000000e+00 0.0000000000000000e+00 0.0000000000000000e+00  0.0000000000000000e+00 0.0000000000000000e+00 0.0000000000000000e+00  0.0000000000000000e+00 0.0000000000000000e+00 0.0000000000000000e+00  0.0000000000000000e+00 0.0000000000000000e+00 0.0000000000000000e+00  0.0000000000000000e+00 0.0000000000000000e+00 0.0000000000000000e+00  0.0000000000000000e+00 0.0000000000000000e+00 0.0000000000000000e+00  0.0000000000000000e+00 0.0000000000000000e+00 0.0000000000000000e+00  0.0000000000000000e+00 0.0000000000000000e+00 0.0000000000000000e+00  0.0000000000000000e+00 0.0000000000000000e+00 0.0000000000000000e+00  0.0000000000000000e+00 0.0000000000000000e+00 0.0000000000000000e+00  0.0000000000000000e+00 0.0000000000000000e+00 0.0000000000000000e+00  0.0000000000000000e+00 0.0000000000000000e+00 0.0000000000000000e+00  0.0000000000000000e+00 0.0000000000000000e+00 0.0000000000000000e+00  0.0000000000000000e+00 0.0000000000000000e+00 0.0000000000000000e+00  0.0000000000000000e+00 0.0000000000000000e+00 0.0000000000000000e+00  0.0000000000000000e+00 0.0000000000000000e+00 0.0000000000000000e+00  0.0000000000000000e+00 0.0000000000000000e+00 0.0000000000000000e+00  0.0000000000000000e+00 0.0000000000000000e+00 0.0000000000000000e+00  0.0000000000000000e+00 0.0000000000000000e+00 0.0000000000000000e+00  0.0000000000000000e+00 0.0000000000000000e+00 0.0000000000000000e+00  0.0000000000000000e+00 0.0000000000000000e+00 0.0000000000000000e+00  0.0000000000000000e+00 0.0000000000000000e+00 0.0000000000000000e+00  0.0000000000000000e+00 0.0000000000000000e+00 0.0000000000000000e+00  0.0000000000000000e+00 0.0000000000000000e+00 0.0000000000000000e+00  0.0000000000000000e+00 0.0000000000000000e+00 0.0000000000000000e+00  0.0000000000000000e+00 0.0000000000000000e+00 0.0000000000000000e+00  0.0000000000000000e+00 0.0000000000000000e+00 0.0000000000000000e+00  0.0000000000000000e+00 0.0000000000000000e+00 0.0000000000000000e+00  0.0000000000000000e+00 0.0000000000000000e+00 0.0000000000000000e+00  0.0000000000000000e+00 0.0000000000000000e+00 0.0000000000000000e+00  0.0000000000000000e+00 0.0000000000000000e+00 0.0000000000000000e+00  0.0000000000000000e+00 0.0000000000000000e+00 0.0000000000000000e+00  0.0000000000000000e+00 0.0000000000000000e+00 0.0000000000000000e+00  0.0000000000000000e+00 0.0000000000000000e+00 0.0000000000000000e+00  0.0000000000000000e+00 0.0000000000000000e+00 0.0000000000000000e+00  0.0000000000000000e+00 0.0000000000000000e+00 0.0000000000000000e+00  0.0000000000000000e+00 0.0000000000000000e+00 0.0000000000000000e+00  0.0000000000000000e+00 0.0000000000000000e+00 0.0000000000000000e+00  0.0000000000000000e+00 0.0000000000000000e+00 0.0000000000000000e+00  1.0832766598958132e+00 -1.0949093678805338e-03 0.0000000000000000e+00  1.2495367610615311e+00 -1.1355740837992609e-02 0.0000000000000000e+00  1.2979496953055409e+00 -1.5966099808331802e-02 0.0000000000000000e+00  1.0954899608573156e+00 -1.7312709653834932e-03 0.0000000000000000e+00  0.0000000000000000e+00 0.0000000000000000e+00 0.0000000000000000e+00  0.0000000000000000e+00 0.0000000000000000e+00 0.0000000000000000e+00  0.0000000000000000e+00 0.0000000000000000e+00 0.0000000000000000e+00  0.0000000000000000e+00 0.0000000000000000e+00 0.0000000000000000e+00  0.0000000000000000e+00 0.0000000000000000e+00 0.0000000000000000e+00  0.0000000000000000e+00 0.0000000000000000e+00 0.0000000000000000e+00  0.0000000000000000e+00 0.0000000000000000e+00 0.0000000000000000e+00  0.0000000000000000e+00 0.0000000000000000e+00 0.0000000000000000e+00  0.0000000000000000e+00 0.0000000000000000e+00 0.0000000000000000e+00  0.0000000000000000e+00 0.0000000000000000e+00 0.0000000000000000e+00  0.0000000000000000e+00 0.0000000000000000e+00 0.0000000000000000e+00  0.0000000000000000e+00 0.0000000000000000e+00 0.0000000000000000e+00  0.0000000000000000e+00 0.0000000000000000e+00 0.0000000000000000e+00  0.0000000000000000e+00 0.0000000000000000e+00 0.0000000000000000e+00  0.0000000000000000e+00 0.0000000000000000e+00 0.0000000000000000e+00  0.0000000000000000e+00 0.0000000000000000e+00 0.0000000000000000e+00  0.0000000000000000e+00 0.0000000000000000e+00 0.0000000000000000e+00  0.0000000000000000e+00 0.0000000000000000e+00 0.0000000000000000e+00  0.0000000000000000e+00 0.0000000000000000e+00 0.0000000000000000e+00  0.0000000000000000e+00 0.0000000000000000e+00 0.0000000000000000e+00  0.0000000000000000e+00 0.0000000000000000e+00 0.0000000000000000e+00  9.6000004457424493e-01 0.0000000000000000e+00 0.0000000000000000e+00  1.4400000668626891e+00 0.0000000000000000e+00 0.0000000000000000e+00  1.4400000668652677e+00 0.0000000000000000e+00 0.0000000000000000e+00  9.6000004457788424e-01 0.0000000000000000e+00 0.0000000000000000e+00  5.9582730297829767e-01 -5.4394538196018072e-01 0.0000000000000000e+00  1.5039285158315935e-01 3.0302553962957746e-01 0.0000000000000000e+00  3.4836694539103769e-01 2.5822720317635917e-01 0.0000000000000000e+00  1.7951058230427490e+00 -8.7700034081521563e-03 0.0000000000000000e+00  1.9744029036130419e+00 1.0262576465871828e-01 0.0000000000000000e+00  1.4658621408525190e+00 2.2089667947768102e-01 0.0000000000000000e+00  1.3156906135481792e+00 3.5664962473873213e-01 0.0000000000000000e+00  1.3320869509516844e+00 2.5988004370406614e-01 0.0000000000000000e+00  1.3064584486739572e+00 -7.1694544042244970e-02 0.0000000000000000e+00  1.2649479446418646e+00 -3.2169777473806788e-01 0.0000000000000000e+00  1.4087727058170754e+00 -3.6302565419297961e-01 0.0000000000000000e+00  -2.4435524735475458e-01 1.5570087993286302e-01 0.0000000000000000e+00  1.2373237866580977e+00 4.9630330666380522e-03 0.0000000000000000e+00  6.0059391646064234e-02 -3.5577480878721784e-02 0.0000000000000000e+00  -5.4546512482889949e-02 1.9128260047117146e-01 0.0000000000000000e+00  1.3154597247489705e+00 7.8856081778392795e-01 0.0000000000000000e+00  2.3363865462552849e-01 7.1613307074327490e-02 0.0000000000000000e+00  1.8752122737446355e+00 -1.9866372514086209e-01 0.0000000000000000e+00  1.3834275118969339e+00 1.0535901571721294e-01 0.0000000000000000e+00  1.7731647193585753e+00 -2.9186689374521041e-01 0.0000000000000000e+00  1.3919548016373517e+00 -2.8973071420204038e-01 0.0000000000000000e+00  1.7151828014364721e+00 2.1885103853047755e-01 0.0000000000000000e+00  1.5168069113360270e+00 1.1647249921949480e-02 0.0000000000000000e+00  1.0146411801670676e+00 -3.7211499098022321e-02 0.0000000000000000e+00  2.0025578710298122e+00 4.5331945927980399e-01 0.0000000000000000e+00  1.8676550765266813e+00 6.5455546715770718e-01 0.0000000000000000e+00  1.4959747551117604e+00 7.8320925844317268e-01 0.0000000000000000e+00  1.1489018530790864e+00 5.6837080953366581e-01 0.0000000000000000e+00  9.4010150152192618e-01 1.1180058062409071e-01 0.0000000000000000e+00  9.8454877646937944e-01 -3.9219772573528044e-01 0.0000000000000000e+00  1.2919204273228873e+00 -6.9370503632716685e-01 0.0000000000000000e+00  1.6539059636573157e+00 -7.0843214395507648e-01 0.0000000000000000e+00  1.9144437732700559e+00 -5.0772305774244852e-01 0.0000000000000000e+00  1.3887692177440458e+00 -5.4870456933225446e-02 0.0000000000000000e+00  7.4944261023954606e-01 -2.2118690742699673e-01 0.0000000000000000e+00  1.3168773227744015e+00 -2.7707164921842251e-02 0.0000000000000000e+00  -1.4217453899909405e-01 6.0595733224170847e-02 0.0000000000000000e+00  1.8053853000338826e+00 3.1870938234593769e-02 0.0000000000000000e+00  1.1981489043966509e+00 -4.1295786771970683e-02 0.0000000000000000e+00  1.8377391757272497e+00 -2.1021966518985621e-01 0.0000000000000000e+00  1.2399574731455485e+00 9.5094792172450253e-03 0.0000000000000000e+00  1.2822436126075212e+00 3.5979476025607849e-03 0.0000000000000000e+00  -6.8469122274266950e-02 1.6218923518503206e-01 0.0000000000000000e+00  1.9645944910517457e+00 -4.2972367135408784e-01 0.0000000000000000e+00  1.4710968173956429e+00 4.7837473334048112e-03 0.0000000000000000e+00  1.1216424258531283e+00 1.2254378226490809e-01 0.0000000000000000e+00  1.4017420315124016e+00 2.5314399456418463e-01 0.0000000000000000e+00  1.2060915387683957e+00 1.7549777904739949e-02 0.0000000000000000e+00  1.2390441304381432e+00 -4.6274893655241685e-02 0.0000000000000000e+00  -9.7703999983739784e-02 -4.0602638487132213e-02 0.0000000000000000e+00  1.4603899918207763e+00 -1.6255825387462525e-01 0.0000000000000000e+00  8.4207210420311518e-01 5.7973364830318598e-02 0.0000000000000000e+00  1.0777500961362281e+00 1.7006046606113648e-01 0.0000000000000000e+00  1.0467734783602605e+00 -1.3541318031653896e-01 0.0000000000000000e+00  1.7470008278595521e+00 8.6813528337194579e-01 0.0000000000000000e+00  1.2378862899508771e+00 9.5351534376664560e-01 0.0000000000000000e+00  7.6198384517301210e-01 5.2203079081701442e-01 0.0000000000000000e+00  6.4537698520440601e-01 -1.8751070921641055e-01 0.0000000000000000e+00  2.0124490982236161e+00 6.0726823529157214e-01 0.0000000000000000e+00  1.9531877273097513e+00 -2.7380270697330877e-01 0.0000000000000000e+00  1.4646741014704769e+00 2.1823204962188181e-01 0.0000000000000000e+00  9.6456459101481429e-01 -7.9201386259363604e-01 0.0000000000000000e+00  1.2097160513043992e+00 -8.0147746827208613e-02 0.0000000000000000e+00  1.3755909302801232e+00 -3.5598776072120662e-02 0.0000000000000000e+00  1.2602720630881086e+00 3.8164813386006914e-04 0.0000000000000000e+00  1.2572934315207573e+00 3.0905303012526045e-02 0.0000000000000000e+00  2.3277152984667246e-01 4.6295783662165781e-02 0.0000000000000000e+00  -5.7976900287204952e-02 1.2475739466799407e-01 0.0000000000000000e+00  -5.5858664765216066e-02 9.2043684731315051e-02 0.0000000000000000e+00  1.5743102930096071e+00 -3.8300504327009538e-01 0.0000000000000000e+00  1.6963437505034207e+00 8.2461001443999579e-02 0.0000000000000000e+00  2.9904284940212092e-02 -7.6821513051158211e-02 0.0000000000000000e+00  1.5150678751283424e+00 -1.0370267664789428e+00 0.0000000000000000e+00  1.3287387256561856e+00 2.2572012503303232e-01 0.0000000000000000e+00  4.4173597801135500e-01 1.0775478523258135e-01 0.0000000000000000e+00  1.6389042031935512e+00 5.1331366711047710e-01 0.0000000000000000e+00  1.1126594290997704e+00 -1.7566162713252667e-01 0.0000000000000000e+00  1.1909519894284903e+00 6.0044020201765129e-02 0.0000000000000000e+00  1.1074505386931599e+00 1.0032873825892692e-01 0.0000000000000000e+00  1.1476652717628706e+00 -6.0573509837220742e-02 0.0000000000000000e+00  4.9517371201835741e-01 -2.1053964941680377e-02 0.0000000000000000e+00  1.7567437218020736e+00 -3.2910536578941230e-01 0.0000000000000000e+00  -6.7066349778789086e-02 -9.9155611751845452e-02 0.0000000000000000e+00  1.5136065403677141e+00 1.1233343393157345e+00 0.0000000000000000e+00  -4.8857292988411488e-02 4.0102090399740647e-03 0.0000000000000000e+00  1.8778275419990167e+00 7.7593342396162535e-01 0.0000000000000000e+00  8.4482998967152367e-01 9.3276476046048484e-01 0.0000000000000000e+00  4.3075779375724688e-01 2.0925444176541474e-01 0.0000000000000000e+00  1.3003322612561712e+00 -1.1112190337380949e-02 0.0000000000000000e+00  1.2576768752110661e+00 1.7685988704649970e-02 0.0000000000000000e+00  9.9375291071073224e-01 -9.5927067943987837e-02 0.0000000000000000e+00  1.3620237513876321e+00 2.5170945344752527e-01 0.0000000000000000e+00  -6.0179254842013495e-02 7.4343808846824538e-02 0.0000000000000000e+00  5.9399444289504033e-01 -6.2108740125079021e-01 0.0000000000000000e+00  9.1297757587256489e-01 -4.0152573345631125e-02 0.0000000000000000e+00  1.9539273107394284e+00 -7.9086457948797506e-01 0.0000000000000000e+00  1.1729262217756460e+00 4.1041300539359826e-04 0.0000000000000000e+00  2.6788349477800460e-01 3.3445663862799166e-02 0.0000000000000000e+00  -2.4703525131898571e-01 3.2675071668720523e-01 0.0000000000000000e+00  1.5572793762395252e+00 -2.3314208010704401e-01 0.0000000000000000e+00  1.1640314162135008e+00 -1.0820613489960005e+00 0.0000000000000000e+00  1.3198769290155541e+00 -1.3664018311506371e-01 0.0000000000000000e+00  8.8439668799147986e-01 -1.1223651850290306e-01 0.0000000000000000e+00  1.0755256566195102e+00 -4.5835356072560493e-02 0.0000000000000000e+00  7.7367570780060757e-01 -4.9797856408006311e-02 0.0000000000000000e+00  3.1710510496231296e-02 -5.2704073690256689e-02 0.0000000000000000e+00  1.4131587254164706e+00 7.4149196648205670e-02 0.0000000000000000e+00  1.8273861652221530e+00 -5.0838175054006396e-01 0.0000000000000000e+00  9.5330469768774295e-01 5.8355482662679911e-02 0.0000000000000000e+00  1.7796213251303432e+00 -9.9593370547532389e-01 0.0000000000000000e+00  1.0651324891397931e+00 2.3763652062731466e-02 0.0000000000000000e+00  1.6572674363446072e+00 1.4665090047006968e-01 0.0000000000000000e+00  4.9704608415939777e-01 8.3558887253479569e-02 0.0000000000000000e+00  1.4141404736599168e+00 8.5668697843645281e-02 0.0000000000000000e+00  1.0333472596770528e+00 1.6568341860731961e-01 0.0000000000000000e+00  -1.4657244926061086e-01 1.5953139410226919e-01 0.0000000000000000e+00  1.0934634317603371e+00 -1.9363507203320571e-03 0.0000000000000000e+00  1.3638072823628828e+00 4.4038750729081255e-01 0.0000000000000000e+00  1.3023936007573025e+00 -5.6558049964176044e-02 0.0000000000000000e+00  1.2712378511671170e+00 1.6753200476075003e-01 0.0000000000000000e+00  1.2773409935545541e+00 1.3083187597741150e-01 0.0000000000000000e+00  1.3035065592190858e+00 1.1363890300795848e-01 0.0000000000000000e+00  1.8511259784957088e+00 2.9068572524917918e-01 0.0000000000000000e+00  1.1569172528979994e+00 1.5923377440524233e-01 0.0000000000000000e+00  1.9896638759723890e+00 -2.8692504601437692e-02 0.0000000000000000e+00  -3.8801944082424267e-02 1.0151209425549880e-01 0.0000000000000000e+00  1.2598584452895880e+00 -6.2306638268547446e-02 0.0000000000000000e+00  1.5807800783527821e+00 4.1497383558857959e-01 0.0000000000000000e+00  1.4825828876630152e+00 1.6835054741116868e-02 0.0000000000000000e+00  1.5817299757012995e+00 -7.0253991627988654e-01 0.0000000000000000e+00  1.0185688434567908e+00 -1.7559631263196311e-02 0.0000000000000000e+00  1.5861524813186918e+00 5.9469746964067646e-03 0.0000000000000000e+00  1.6390902647691323e+00 6.2563813490428666e-01 0.0000000000000000e+00  1.6602230186530387e+00 -1.1172713998705284e-02 0.0000000000000000e+00  -1.4252377187802356e-03 1.5330622194502952e-01 0.0000000000000000e+00  1.2700316103673608e+00 -3.1625601286595423e-01 0.0000000000000000e+00  1.0734140799613427e+00 6.3669933224639474e-01 0.0000000000000000e+00  1.4339972838041033e+00 4.0620602959702816e-02 0.0000000000000000e+00  8.4219163706100819e-01 1.5838329781767131e-03 0.0000000000000000e+00  9.3364273595388392e-01 -8.1696531516740029e-02 0.0000000000000000e+00  8.5138326147902921e-01 1.4644598756098859e-02 0.0000000000000000e+00  1.3626399210496110e+00 -1.9925005317390618e-01 0.0000000000000000e+00  1.9024201970011263e+00 2.3160600256832009e-01 0.0000000000000000e+00  8.4532174825437667e-01 1.4115909912035296e-01 0.0000000000000000e+00  1.0610705582459425e+00 -2.3291905829980653e-01 0.0000000000000000e+00  9.4848776647220612e-01 -1.4865878694756879e-01 0.0000000000000000e+00  -3.3249288023251461e-01 3.3819690545458170e-01 0.0000000000000000e+00  -1.1762362096456944e-01 2.5477154078004766e-01 0.0000000000000000e+00  1.0082281711328684e+00 -6.6090796029945006e-04 0.0000000000000000e+00  9.6141311752310832e-01 1.1918301015217834e-03 0.0000000000000000e+00  1.8723463642477808e-01 -5.2570050270768853e-01 0.0000000000000000e+00  1.5870086156483165e+00 2.9062190248930277e-02 0.0000000000000000e+00  9.7870688244660364e-01 -6.8110423151424293e-01 0.0000000000000000e+00  8.8789287150772966e-01 4.8277954219520545e-02 0.0000000000000000e+00  1.1817821709776957e+00 -3.7344382973575285e-02 0.0000000000000000e+00  8.8708825478587550e-01 1.7586882862230719e-03 0.0000000000000000e+00  2.8254098735918968e-03 1.1367119977252167e-01 0.0000000000000000e+00  9.6615413983423704e-01 -1.7223479923466148e-01 0.0000000000000000e+00  8.3688254386092253e-01 -3.4771678285443225e-02 0.0000000000000000e+00  1.0953608179378211e+00 1.1412648971045256e+00 0.0000000000000000e+00  1.6590954435097698e+00 9.6180715786449356e-01 0.0000000000000000e+00  4.5297955784949473e-01 6.5971100105908353e-01 0.0000000000000000e+00  3.0455805290912885e-01 -2.4092928007876960e-01 0.0000000000000000e+00  7.5523325398926333e-01 8.0761810969783195e-03 0.0000000000000000e+00  -4.1570002994009196e-02 5.1094693890155515e-02 0.0000000000000000e+00  1.3851798788489398e+00 3.6943284201121757e-01 0.0000000000000000e+00  -5.9656845906805610e-02 -8.7922123898662122e-02 0.0000000000000000e+00  -4.5289133140330680e-02 -6.3558806453487326e-02 0.0000000000000000e+00  1.2853624749935677e+00 -8.8399905977021576e-03 0.0000000000000000e+00  1.2262973920278089e+00 4.5140569825346446e-03 0.0000000000000000e+00  7.4358212495664844e-01 -9.8294118217757953e-01 0.0000000000000000e+00  8.9416420682787101e-01 2.0959864250782157e-02 0.0000000000000000e+00  6.1066315277806282e-01 5.1456292538499690e-02 0.0000000000000000e+00  5.8601205060404671e-01 2.1909891551151181e-02 0.0000000000000000e+00  6.3016989133964785e-01 3.8597057227886637e-02 0.0000000000000000e+00  1.3827338427175426e+00 -4.6332039086996285e-01 0.0000000000000000e+00  5.5528963499857609e-01 3.3703034574645734e-02 0.0000000000000000e+00  4.3153386611448880e-01 3.1436288353106460e-02 0.0000000000000000e+00  7.7982722758627887e-01 -7.4623753949263107e-03 0.0000000000000000e+00  -1.5291689019942048e-01 2.7689071424638421e-02 0.0000000000000000e+00  9.5693626554420386e-01 -5.5641000149151392e-03 0.0000000000000000e+00  1.4587387456148579e+00 4.3605286062856401e-02 0.0000000000000000e+00  7.3368361169172180e-01 -3.6469248893342805e-02 0.0000000000000000e+00  1.7876985673761721e+00 1.5475209392467115e-01 0.0000000000000000e+00  1.4589227667630422e+00 -1.5405969489274387e-02 0.0000000000000000e+00  1.5752624816565892e+00 5.9193183994376142e-01 0.0000000000000000e+00  1.3056016649679216e+00 -1.4959394089050965e-01 0.0000000000000000e+00  1.3133679654602997e+00 8.8031447570423461e-03 0.0000000000000000e+00  1.3176415142554492e+00 1.1846889690997923e-01 0.0000000000000000e+00  1.3936245052700824e+00 -2.5710357791220280e-02 0.0000000000000000e+00  1.2337561454531343e+00 8.1325536893473827e-02 0.0000000000000000e+00  1.2217005476427159e+00 -5.9421497723354177e-03 0.0000000000000000e+00  1.1037152497712870e+00 3.2976771342166103e-02 0.0000000000000000e+00  1.1934477624478135e+00 -1.2254845010644869e-01 0.0000000000000000e+00  1.2763082744327496e+00 5.4933790856177410e-02 0.0000000000000000e+00  9.7816020897854361e-01 -3.8687390064226321e-02 0.0000000000000000e+00  1.4972313855673778e+00 1.6019863600302905e-0