<?xml version="1.0"?>
<VTKFile type="UnstructuredGrid"  version="0.1"  >
<UnstructuredGrid>
<Piece  NumberOfPoints="3852" NumberOfCells="7360">
<Points>
<DataArray  type="Float64"  NumberOfComponents="3"  format="ascii">0 0 0  0 0.41 0  2.2 0.41 0  2.2 0 0  0.2 0.15 0  0.15 0.2 0  0.2 0.25 0  0.25 0.2 0  0.2097545161007899 0.1509607359798352 0  0.219134171618224 0.153806023374423 0  0.2277785116509268 0.1584265193848371 0  0.2353553390592504 0.1646446609405956 0  0.2415734806150793 0.1722214883489481 0  0.2461939766255306 0.1808658283816641 0  0.249039264020151 0.1902454838991403 0  0.2490392640201666 0.2097545161007811 0  0.2461939766255869 0.2191341716182 0  0.2415734806151802 0.2277785116509009 0  0.2353553390594108 0.235355339059244 0  0.2277785116510524 0.2415734806150789 0  0.2191341716182962 0.2461939766255471 0  0.209754516100834 0.2490392640201561 0  0.1902454838992189 0.2490392640201666 0  0.1808658283818 0.2461939766255869 0  0.1722214883490991 0.2415734806151802 0  0.164644660940756 0.2353553390594108 0  0.1584265193849211 0.2277785116510524 0  0.1538060233744529 0.2191341716182962 0  0.150960735979844 0.209754516100834 0  0.1509607359798352 0.1902454838992101 0  0.153806023374423 0.180865828381776 0  0.1584265193848371 0.1722214883490732 0  0.1646446609405956 0.1646446609407496 0  0.1722214883489481 0.1584265193849207 0  0.1808658283816641 0.1538060233744694 0  0.1902454838991403 0.150960735979849 0  0.09999999999980318 0 0  0.1999999999996354 0 0  0.2999999999994593 0 0  0.3999999999991452 0 0  0.4999999999988309 0 0  0.599999999998495 0 0  0.6999999999982023 0 0  0.7999999999979096 0 0  0.8999999999975735 0 0  0.9999999999972848 0 0  1.099999999997053 0 0  1.199999999997309 0 0  1.299999999997566 0 0  1.399999999997821 0 0  1.49999999999809 0 0  1.599999999998377 0 0  1.69999999999859 0 0  1.799999999998877 0 0  1.899999999999145 0 0  1.999999999999386 0 0  2.099999999999693 0 0  2.2 0.08199999999981657 0  2.2 0.1639999999995688 0  2.2 0.2459999999995603 0  2.2 0.327999999999785 0  2.100000000000048 0.41 0  2.000000000000269 0.41 0  1.900000000000422 0.41 0  1.800000000000679 0.41 0  1.700000000000931 0.41 0  1.600000000001326 0.41 0  1.500000000001665 0.41 0  1.400000000002032 0.41 0  1.300000000002395 0.41 0  1.200000000002644 0.41 0  1.100000000002865 0.41 0  1.000000000002617 0.41 0  0.900000000002368 0.41 0  0.8000000000021192 0.41 0  0.7000000000018587 0.41 0  0.6000000000015786 0.41 0  0.5000000000013736 0.41 0  0.4000000000010933 0.41 0  0.3000000000008329 0.41 0  0.2000000000005997 0.41 0  0.1000000000003003 0.41 0  0 0.3280000000001975 0  0 0.2460000000004372 0  0 0.1640000000004437 0  0 0.08200000000021695 0  0.439039350479032 0.2235433210862024 0  0.3557293424662716 0.1539377961885917 0  0.3450132387946972 0.2399891502764809 0  0.2900756359792848 0.08507884665974728 0  0.2884413411145515 0.3059878288466324 0  0.2102195502178943 0.3385267178242456 0  0.137328909169326 0.3152847369018352 0  0.08490385663776813 0.2628976192695439 0  0.08063302347471875 0.188368977740952 0  0.1005937615311739 0.1162460982751979 0  0.1621860847198582 0.08598327887900903 0  0.3012864586130264 0.1926027915888804 0  1.999140000000448 0.2049999999995642 0  0.2742354912953259 0.1572259708446958 0  0.2871471664627305 0.2264358039321654 0  0.6542851578645765 0.1981889790488746 0  0.2651366296338276 0.2534562504463119 0  0.2371819217149928 0.0977949043027586 0  1.651678197071202 0.2145186615851206 0  1.349674714201118 0.2086119645070391 0  0.9627539291831038 0.2056711800839285 0  0.2360880502985623 0.2733043913425156 0  1.159884231859056 0.2050429640239795 0  0.2502927927237266 0.1358797630898622 0  0.2080582834123368 0.2835355213895352 0  0.1805439632603489 0.278338480667804 0  0.1486243506827335 0.2626014098227327 0  0.1266658889266303 0.2392753516137401 0  0.1179814841582247 0.2069380844236527 0  0.1225167704961566 0.1764957192948648 0  0.1357996569043286 0.1472158045151807 0  0.1619764829264572 0.126298308975886 0  0.1935640279204225 0.116654032325456 0  1.82457000000085 0.2346439024393236 0  0.8027657238591595 0.149277802568535 0  1.498563450727992 0.2632867809910664 0  0.2770405925201826 0.1924926016722167 0  0.470924801584011 0.09138612536042019 0  0.550693598792917 0.2898604497866635 0  0.381089831438127 0.3238078833671811 0  2.074516462495042 0.125705772324225 0  2.083599037046577 0.2769549245607841 0  0.2692296340100125 0.2210592970306522 0  0.7614733075682367 0.2839235561638241 0  1.536698221979284 0.1258192462655419 0  1.231809489345021 0.1282542717942667 0  1.054759157670174 0.1242749934189342 0  1.754535566851005 0.1223197024158991 0  1.90452621597739 0.1324728094649104 0  0.2672409321155211 0.178737994598723 0  1.254401531996246 0.2902808614622134 0  1.04350934597445 0.2986664252663559 0  0.0749710792305778 0.3208721925318313 0  0.5425289614095572 0.165152457827861 0  0.1663208394680799 0.2644065126118989 0  0.1471335176887868 0.2433864007787126 0  0.1345556779484054 0.219852318055334 0  0.131940483167677 0.1932967226753857 0  0.1941574795820069 0.2685534232066453 0  0.2226696214021025 0.1252682734732412 0  0.2193882214552426 0.2661718674478616 0  0.1396865053227576 0.1677617654469802 0  0.8749487631478475 0.295170577255529 0  1.424301820545763 0.1157348858866879 0  1.918515045506933 0.2902236143624367 0  1.744876807925144 0.306628844405037 0  0.2443979144126529 0.254353837216211 0  0.2569054246570621 0.2306780201523878 0  0.2632507216716993 0.2062296523407826 0  0.4609453431326088 0.3138128990490959 0  0.3578015395476809 0.08253318517696946 0  0.2529777826635333 0.155582948480283 0  0.1580369715200277 0.1487041474358234 0  0.652872088668587 0.3101079993636056 0  0.297147332491062 0.2558065812325378 0  0.6188247313471635 0.1101603945467571 0  0.8951149554961688 0.1123812542864208 0  1.592749166085722 0.2985190085719691 0  1.40420309431358 0.2992155383468256 0  1.649189110727275 0.1000387439201274 0  0.2301663900864273 0.1432830242131801 0  0.2064839406544439 0.1345771465164309 0  0.2548204572493643 0.1702022465417566 0  0.1606700828011604 0.2481621709908606 0  0.2605987457303776 0.1928909671966518 0  0.1826942838524941 0.2594610608897559 0  0.1456438338561037 0.2290651013631561 0  0.1387681034994896 0.2058679665896095 0  1.140902260384949 0.3081952438204152 0  2.123402621966431 0.2039515281261525 0  0.7272188829630218 0.1047469619375249 0  0.2060868819369127 0.2616331638469837 0  0.246763614216289 0.2411610007697902 0  0.1405961691450822 0.1819800466423126 0  1.149638048863541 0.08264492713269313 0  0.1809997740285721 0.1365020267363126 0  1.993198408221569 0.09755938404998035 0  0.2287111352430851 0.2547015941619741 0  0.3818716699056283 0.2060398770290832 0  0.39147508084147 0.2656155699545688 0  0.151201080877373 0.1608659990301362 0  0.0542521118046473 0.1382221876243976 0  0.06190301158313444 0.0685934933767465 0  1.317316039400266 0.1015983144534349 0  0.2176417279723976 0.1415790407114221 0  0.2401571300978209 0.1529210337009423 0  0.2618092962776011 0.3566662607419938 0  0.1941527094396574 0.1377969918002053 0  0.9590486261329707 0.3255353063371385 0  0.1708201090411339 0.1447474051814825 0  1.837592370686806 0.3302992722413595 0  0.3197015570210796 0.1212159119695666 0  0.4155281956943757 0.1409543952531078 0  0.0549491513262805 0.2307535706287103 0  0.1668210562270142 0.3605647861782867 0  0.2854688902460447 0.2093700809023571 0  2.013251581901814 0.3292746985146142 0  0.1192191106244758 0.2809901915857802 0  0.2487958366614321 0.04556523514103697 0  0.09061021186838321 0.2240174335271237 0  1.737143840576958 0.20912817770623 0  0.04515017012776967 0.2784708690411318 0  0.5347554646753627 0.08988970780599832 0  0.977104673723579 0.08241628541188413 0  0.336509991617897 0.2888965225844298 0  0.2569238041969055 0.2173711314485607 0  1.906541186051535 0.2125389476829634 0  0.1762338839607841 0.3102437166134606 0  1.449268841077636 0.201011295143529 0  0.8555371485878378 0.2099663446585434 0  1.837208236203613 0.07556229833764837 0  1.264402545318887 0.1992523923163096 0  1.068181074047183 0.2155119107017876 0  0.3158931250274742 0.3421721218291775 0  0.2731958384900449 0.2373435058667565 0  0.09875906484220501 0.1533097574901186 0  0.7355755433976705 0.2066339904079041 0  1.567440499207928 0.2049999999995983 0  1.329829828222916 0.3295825481537897 0  0.8214190147401245 0.07894167681990104 0  1.525459989258997 0.3394220200696043 0  0.1990897327079506 0.06300531675246424 0  0.244701762210989 0.3062404318132603 0  0.1033853772622983 0.3551443431224104 0  0.1178236825374896 0.07148041782551597 0  0.1558198999929474 0.04409380269139784 0  0.3389178979413869 0.198678920661321 0  0.310790717645908 0.2196004930752872 0  2.125022007676643 0.3402049371791425 0  2.130028889485561 0.06535501282233655 0  0.4821161335597635 0.1626909543876269 0  0.2838678108956019 0.1254276466262967 0  0.5062815929260498 0.2376271077316994 0  1.663059277092996 0.3422301118688678 0  1.82292665764828 0.1574809263836269 0  2.052538557905295 0.05717536030732174 0  0.3078251537889645 0.16056368457456 0  0.8108267070172145 0.3390047366820738 0  1.487254632568403 0.0703866281621833 0  0.155004430757041 0.2369517702015699 0  0.1725545045705267 0.2519594403466565 0  0.1445581653510352 0.2167994984574706 0  0.1420710285613199 0.1942747855116325 0  1.461861739291679 0.3471998553985149 0  0.2372128969196007 0.2453440460936858 0  0.1943665918892754 0.2580518465884657 0  0.2452139232912363 0.1629124725160763 0  0.2555786751481889 0.1825885041235872 0  2.14640473333793 0.2790222779730848 0  2.145589594789407 0.1282024626544199 0  0.1486651579751984 0.1726583296292201 0  0.550000000001476 0.3603327897285098 0  0.0505668771231032 0.3660023622363767 0  1.049999999997169 0.05217028468202135 0  1.244771793631775 0.05744029386223062 0  0.1356759337238615 0.1094447816941579 0  0.5872326411628903 0.2223148728195226 0  0.2168458206248643 0.2558159203714847 0  1.749999999998732 0.05166028789524129 0  0.2855257256666041 0.1763246086558152 0  1.92
[...]
<PointData  Vectors="f_22"> 
<DataArray  type="Float64"  Name="f_22"  NumberOfComponents="3" format="ascii">0.0000000000000000e+00 0.0000000000000000e+00 0.0000000000000000e+00  0.0000000000000000e+00 0.0000000000000000e+00 0.0000000000000000e+00  0.0000000000000000e+00 0.0000000000000000e+00 0.0000000000000000e+00  0.0000000000000000e+00 0.0000000000000000e+00 0.0000000000000000e+00  0.0000000000000000e+00 0.0000000000000000e+00 0.0000000000000000e+00  0.0000000000000000e+00 0.0000000000000000e+00 0.0000000000000000e+00  0.0000000000000000e+00 0.0000000000000000e+00 0.0000000000000000e+00  0.0000000000000000e+00 0.0000000000000000e+00 0.0000000000000000e+00  0.0000000000000000e+00 0.0000000000000000e+00 0.0000000000000000e+00  0.0000000000000000e+00 0.0000000000000000e+00 0.0000000000000000e+00  0.0000000000000000e+00 0.0000000000000000e+00 0.0000000000000000e+00  0.0000000000000000e+00 0.0000000000000000e+00 0.0000000000000000e+00  0.0000000000000000e+00 0.0000000000000000e+00 0.0000000000000000e+00  0.0000000000000000e+00 0.0000000000000000e+00 0.0000000000000000e+00  0.0000000000000000e+00 0.0000000000000000e+00 0.0000000000000000e+00  0.0000000000000000e+00 0.0000000000000000e+00 0.0000000000000000e+00  0.0000000000000000e+00 0.0000000000000000e+00 0.0000000000000000e+00  0.0000000000000000e+00 0.0000000000000000e+00 0.0000000000000000e+00  0.0000000000000000e+00 0.0000000000000000e+00 0.0000000000000000e+00  0.0000000000000000e+00 0.0000000000000000e+00 0.0000000000000000e+00  0.0000000000000000e+00 0.0000000000000000e+00 0.0000000000000000e+00  0.0000000000000000e+00 0.0000000000000000e+00 0.0000000000000000e+00  0.0000000000000000e+00 0.0000000000000000e+00 0.0000000000000000e+00  0.0000000000000000e+00 0.0000000000000000e+00 0.0000000000000000e+00  0.0000000000000000e+00 0.0000000000000000e+00 0.0000000000000000e+00  0.0000000000000000e+00 0.0000000000000000e+00 0.0000000000000000e+00  0.0000000000000000e+00 0.0000000000000000e+00 0.0000000000000000e+00  0.0000000000000000e+00 0.0000000000000000e+00 0.0000000000000000e+00  0.0000000000000000e+00 0.0000000000000000e+00 0.0000000000000000e+00  0.0000000000000000e+00 0.0000000000000000e+00 0.0000000000000000e+00  0.0000000000000000e+00 0.0000000000000000e+00 0.0000000000000000e+00  0.0000000000000000e+00 0.0000000000000000e+00 0.0000000000000000e+00  0.0000000000000000e+00 0.0000000000000000e+00 0.0000000000000000e+00  0.0000000000000000e+00 0.0000000000000000e+00 0.0000000000000000e+00  0.0000000000000000e+00 0.0000000000000000e+00 0.0000000000000000e+00  0.0000000000000000e+00 0.0000000000000000e+00 0.0000000000000000e+00  0.0000000000000000e+00 0.0000000000000000e+00 0.0000000000000000e+00  0.0000000000000000e+00 0.0000000000000000e+00 0.0000000000000000e+00  0.0000000000000000e+00 0.0000000000000000e+00 0.0000000000000000e+00  0.0000000000000000e+00 0.0000000000000000e+00 0.0000000000000000e+00  0.0000000000000000e+00 0.0000000000000000e+00 0.0000000000000000e+00  0.0000000000000000e+00 0.0000000000000000e+00 0.0000000000000000e+00  0.0000000000000000e+00 0.0000000000000000e+00 0.0000000000000000e+00  0.0000000000000000e+00 0.0000000000000000e+00 0.0000000000000000e+00  0.0000000000000000e+00 0.0000000000000000e+00 0.0000000000000000e+00  0.0000000000000000e+00 0.0000000000000000e+00 0.0000000000000000e+00  0.0000000000000000e+00 0.0000000000000000e+00 0.0000000000000000e+00  0.0000000000000000e+00 0.0000000000000000e+00 0.0000000000000000e+00  0.0000000000000000e+00 0.0000000000000000e+00 0.0000000000000000e+00  0.0000000000000000e+00 0.0000000000000000e+00 0.0000000000000000e+00  0.0000000000000000e+00 0.0000000000000000e+00 0.0000000000000000e+00  0.0000000000000000e+00 0.0000000000000000e+00 0.0000000000000000e+00  0.0000000000000000e+00 0.0000000000000000e+00 0.0000000000000000e+00  0.0000000000000000e+00 0.0000000000000000e+00 0.0000000000000000e+00  0.0000000000000000e+00 0.0000000000000000e+00 0.0000000000000000e+00  0.0000000000000000e+00 0.0000000000000000e+00 0.0000000000000000e+00  0.0000000000000000e+00 0.0000000000000000e+00 0.0000000000000000e+00  1.0821927158441778e+00 3.4045515088674135e-03 0.0000000000000000e+00  1.2755103297670229e+00 2.4993638111794909e-02 0.0000000000000000e+00  1.2735532015349069e+00 2.1895491903731593e-02 0.0000000000000000e+00  1.0956573083389602e+00 4.8426640555996497e-05 0.0000000000000000e+00  0.0000000000000000e+00 0.0000000000000000e+00 0.0000000000000000e+00  0.0000000000000000e+00 0.0000000000000000e+00 0.0000000000000000e+00  0.0000000000000000e+00 0.0000000000000000e+00 0.0000000000000000e+00  0.0000000000000000e+00 0.0000000000000000e+00 0.0000000000000000e+00  0.0000000000000000e+00 0.0000000000000000e+00 0.0000000000000000e+00  0.0000000000000000e+00 0.0000000000000000e+00 0.0000000000000000e+00  0.0000000000000000e+00 0.0000000000000000e+00 0.0000000000000000e+00  0.0000000000000000e+00 0.0000000000000000e+00 0.0000000000000000e+00  0.0000000000000000e+00 0.0000000000000000e+00 0.0000000000000000e+00  0.0000000000000000e+00 0.0000000000000000e+00 0.0000000000000000e+00  0.0000000000000000e+00 0.0000000000000000e+00 0.0000000000000000e+00  0.0000000000000000e+00 0.0000000000000000e+00 0.0000000000000000e+00  0.0000000000000000e+00 0.0000000000000000e+00 0.0000000000000000e+00  0.0000000000000000e+00 0.0000000000000000e+00 0.0000000000000000e+00  0.0000000000000000e+00 0.0000000000000000e+00 0.0000000000000000e+00  0.0000000000000000e+00 0.0000000000000000e+00 0.0000000000000000e+00  0.0000000000000000e+00 0.0000000000000000e+00 0.0000000000000000e+00  0.0000000000000000e+00 0.0000000000000000e+00 0.0000000000000000e+00  0.0000000000000000e+00 0.0000000000000000e+00 0.0000000000000000e+00  0.0000000000000000e+00 0.0000000000000000e+00 0.0000000000000000e+00  0.0000000000000000e+00 0.0000000000000000e+00 0.0000000000000000e+00  9.6000004701954200e-01 0.0000000000000000e+00 0.0000000000000000e+00  1.4400000705306351e+00 0.0000000000000000e+00 0.0000000000000000e+00  1.4400000705332134e+00 0.0000000000000000e+00 0.0000000000000000e+00  9.6000004702318131e-01 0.0000000000000000e+00 0.0000000000000000e+00  7.9957208862693391e-02 6.0932111624398166e-01 0.0000000000000000e+00  7.9207801939004885e-01 1.5189398242139204e-01 0.0000000000000000e+00  -5.6647448995922473e-02 -3.2470076973954397e-02 0.0000000000000000e+00  1.8627166808320887e+00 1.8409626310998712e-03 0.0000000000000000e+00  1.8900074021478022e+00 7.4117400594881519e-02 0.0000000000000000e+00  1.4340995399208163e+00 2.0353884781654052e-01 0.0000000000000000e+00  1.3026010883496077e+00 3.3643825716944442e-01 0.0000000000000000e+00  1.3274399264313437e+00 2.4109766641786753e-01 0.0000000000000000e+00  1.3080085632630714e+00 -9.3730108047920827e-02 0.0000000000000000e+00  1.2728554950182207e+00 -3.4015038278626580e-01 0.0000000000000000e+00  1.4279640245675362e+00 -3.7998063748538896e-01 0.0000000000000000e+00  -1.8690879584261988e-01 -2.3259450774122004e-01 0.0000000000000000e+00  1.2957443605008478e+00 -7.0258143038305895e-02 0.0000000000000000e+00  1.2714146063485274e-01 -1.8038051996592577e-01 0.0000000000000000e+00  -1.6121537136024228e-01 -9.2951382310642205e-02 0.0000000000000000e+00  9.6163619383829935e-01 -6.8284148152680135e-01 0.0000000000000000e+00  2.6714117085472566e-01 -1.1390927787997669e-02 0.0000000000000000e+00  1.9113561850567629e+00 -2.1305646036070100e-01 0.0000000000000000e+00  1.3684632604202656e+00 -8.2131360584999008e-02 0.0000000000000000e+00  1.5243098998038271e+00 -7.6605239579378938e-03 0.0000000000000000e+00  1.6456981576594147e+00 -8.9965864099672133e-01 0.0000000000000000e+00  1.7322689495643639e+00 1.8679991519758796e-01 0.0000000000000000e+00  1.7161099203416381e+00 1.1345987327579116e-01 0.0000000000000000e+00  9.9518589605068397e-01 -6.2739211418796778e-02 0.0000000000000000e+00  1.9820569854225585e+00 4.2306415184731194e-01 0.0000000000000000e+00  1.8481808315983663e+00 6.2688637136224468e-01 0.0000000000000000e+00  1.4781371739819551e+00 7.5202797906261187e-01 0.0000000000000000e+00  1.1373385463963555e+00 5.3215722354126349e-01 0.0000000000000000e+00  9.3823203895916862e-01 7.2220312888247040e-02 0.0000000000000000e+00  9.9322691470367852e-01 -4.3132637293575221e-01 0.0000000000000000e+00  1.3092690609577842e+00 -7.2678643784261343e-01 0.0000000000000000e+00  1.6772104259239604e+00 -7.3401036868256142e-01 0.0000000000000000e+00  1.9411933045315481e+00 -5.2765716157085174e-01 0.0000000000000000e+00  1.3029809451968275e+00 1.2921702256815398e-01 0.0000000000000000e+00  1.3056204842694044e+00 2.7182087483814549e-01 0.0000000000000000e+00  1.3447196064337998e+00 -4.4926338929956212e-02 0.0000000000000000e+00  -1.1048649033924501e-01 -2.2365009724878102e-01 0.0000000000000000e+00  1.3235759969600858e+00 1.1825438197805040e-01 0.0000000000000000e+00  1.6602480382599687e+00 -5.6330359115990591e-01 0.0000000000000000e+00  1.7976677655411639e+00 -3.7003260099067861e-02 0.0000000000000000e+00  1.2663235598129119e+00 -8.8177434650049784e-03 0.0000000000000000e+00  1.2718596424948565e+00 -1.7302334458825244e-02 0.0000000000000000e+00  -1.0466520633769623e-01 -6.6291555714881295e-02 0.0000000000000000e+00  8.8488454594541122e-01 3.8039546250630157e-01 0.0000000000000000e+00  1.3754383076918060e+00 -1.1405527362328446e-01 0.0000000000000000e+00  1.1588966824752824e+00 6.3650934778229154e-02 0.0000000000000000e+00  1.3845851203076165e+00 -6.6749796300434372e-02 0.0000000000000000e+00  1.2674317647517510e+00 -3.7072014352186794e-02 0.0000000000000000e+00  1.1935720372305041e+00 1.6485501670212475e-02 0.0000000000000000e+00  -5.6577850727777816e-02 -2.4973866186310778e-01 0.0000000000000000e+00  1.2864270411336753e+00 1.7880198008349824e-01 0.0000000000000000e+00  9.9208894496766931e-01 7.2755251398827520e-02 0.0000000000000000e+00  1.0744250891671103e+00 1.6059068847673919e-01 0.0000000000000000e+00  4.0584930337607816e-01 -3.0353847857257116e-01 0.0000000000000000e+00  1.7270323178200144e+00 8.3950554333201310e-01 0.0000000000000000e+00  1.2186218447397437e+00 9.1667594710605615e-01 0.0000000000000000e+00  7.5195448411997245e-01 4.7697213412496597e-01 0.0000000000000000e+00  6.4938178878608066e-01 -2.3477639333474756e-01 0.0000000000000000e+00  2.0022893545440632e+00 5.8318278812719238e-01 0.0000000000000000e+00  1.9745189177686291e+00 -2.9187649353190676e-01 0.0000000000000000e+00  1.4971526582797174e+00 1.9814411214384414e-01 0.0000000000000000e+00  9.8180717319960731e-01 -8.3396597993237731e-01 0.0000000000000000e+00  1.6848277488364263e+00 -1.5062282664111837e-01 0.0000000000000000e+00  1.0497041079403322e+00 -5.3379616982062806e-03 0.0000000000000000e+00  1.3359102572758641e+00 -7.9323258458860336e-03 0.0000000000000000e+00  1.1331248723833296e+00 7.1968904631672978e-02 0.0000000000000000e+00  2.9091579705177439e-01 2.3346948418086252e-02 0.0000000000000000e+00  -6.6984368404118949e-02 9.3231430702133342e-03 0.0000000000000000e+00  -5.3555275941053471e-02 -1.4098018342925273e-01 0.0000000000000000e+00  1.9181555357078115e+00 -2.6221863330811379e-01 0.0000000000000000e+00  1.7593529847012095e+00 2.3287815245705687e-01 0.0000000000000000e+00  1.0608322833224337e-02 -1.1737459573478182e-01 0.0000000000000000e+00  1.5408668788904079e+00 -1.0691190300779350e+00 0.0000000000000000e+00  1.0322282219681889e+00 5.7133660440198998e-02 0.0000000000000000e+00  3.5381093106050510e-01 -8.9503422768471841e-02 0.0000000000000000e+00  1.5617392833039245e+00 -1.1281169629942471e-01 0.0000000000000000e+00  6.1555471865783518e-01 9.6017410436768008e-02 0.0000000000000000e+00  1.1918827764619793e+00 5.1837004565081536e-02 0.0000000000000000e+00  1.2516331033889885e+00 -9.4008574178690490e-02 0.0000000000000000e+00  1.2035737801281197e+00 -2.4543854761675296e-02 0.0000000000000000e+00  4.6637670448780949e-01 -3.4408933552980324e-02 0.0000000000000000e+00  1.7634460831155172e+00 -3.4248490520443403e-01 0.0000000000000000e+00  -6.1249457822679633e-02 -1.8435790500750418e-01 0.0000000000000000e+00  1.4918399305077086e+00 1.0928890119472203e+00 0.0000000000000000e+00  -4.5437259103818871e-02 -2.0172146905222982e-01 0.0000000000000000e+00  1.8698809228732320e+00 7.5829185662572585e-01 0.0000000000000000e+00  8.2707713357737633e-01 8.8937061581996191e-01 0.0000000000000000e+00  4.2692525612001403e-01 1.5839054384827267e-01 0.0000000000000000e+00  8.5571221301473066e-01 -7.8073414702076432e-02 0.0000000000000000e+00  1.2497251513801160e+00 -4.0852036045085091e-03 0.0000000000000000e+00  1.5479566722755163e+00 4.3357176282543897e-01 0.0000000000000000e+00  1.3936380685064917e+00 2.4043067960845510e-01 0.0000000000000000e+00  -4.2208341592991770e-02 4.7012422391618652e-02 0.0000000000000000e+00  6.0642991347308495e-01 -6.6974867091837298e-01 0.0000000000000000e+00  9.8284231302008185e-01 7.4774247806902353e-02 0.0000000000000000e+00  1.9790936256460208e+00 -8.1227279543081743e-01 0.0000000000000000e+00  1.1435347092513810e+00 -2.4319948811253628e-02 0.0000000000000000e+00  3.1523966020948285e-01 1.7723334684803985e-02 0.0000000000000000e+00  -4.2562501565670885e-01 2.8743051783420231e-01 0.0000000000000000e+00  8.6056454161008289e-01 9.7134874981480629e-02 0.0000000000000000e+00  1.1879121541679685e+00 -1.1208319448491573e+00 0.0000000000000000e+00  1.3217811787485472e+00 -1.4561732081750176e-01 0.0000000000000000e+00  8.8635115628004391e-01 -1.1733940598564137e-01 0.0000000000000000e+00  1.0935900078363239e+00 5.8159145833266583e-02 0.0000000000000000e+00  7.5031383310778732e-01 -5.9749021169138126e-02 0.0000000000000000e+00  3.2478568454826422e-03 -6.0137458101589096e-02 0.0000000000000000e+00  1.3642609659437761e+00 6.9874150892303089e-02 0.0000000000000000e+00  1.8387650678483543e+00 -5.2151062051054053e-01 0.0000000000000000e+00  1.0026719103297153e+00 -1.0289681335489888e-01 0.0000000000000000e+00  1.8055602595467830e+00 -1.0206113658202400e+00 0.0000000000000000e+00  1.0553763128427707e+00 3.8936652456668289e-02 0.0000000000000000e+00  1.8751950418995742e+00 1.1023015288007329e-01 0.0000000000000000e+00  1.4071164235808997e+00 6.7082610355944083e-01 0.0000000000000000e+00  1.4131255909225560e+00 7.4025310461100433e-02 0.0000000000000000e+00  1.0120859442637913e+00 1.5436243428664440e-01 0.0000000000000000e+00  -1.7962775251873841e-01 -1.5507331787301490e-01 0.0000000000000000e+00  1.0952353784577027e+00 1.1470736654449337e-03 0.0000000000000000e+00  1.3532649067946096e+00 4.1599947532383968e-01 0.0000000000000000e+00  1.3366367742387302e+00 -5.4215102496116052e-02 0.0000000000000000e+00  1.2682968715915754e+00 1.4190238223358304e-01 0.0000000000000000e+00  1.4176091746513146e+00 1.2551573596235543e-01 0.0000000000000000e+00  1.3023431694781442e+00 1.0733806149695467e-01 0.0000000000000000e+00  1.3445801200983232e+00 -1.5795106859891780e-01 0.0000000000000000e+00  9.1640055922574304e-01 -1.1671258520114894e-01 0.0000000000000000e+00  1.7493084021673766e+00 -1.3495353351359060e-02 0.0000000000000000e+00  -3.1302650785817350e-02 -4.9106670861781519e-02 0.0000000000000000e+00  1.2920389487895396e+00 5.9412081144136174e-02 0.0000000000000000e+00  1.5599164744619045e+00 3.9115663513056348e-01 0.0000000000000000e+00  1.7749827046264182e+00 -2.6411002422529761e-01 0.0000000000000000e+00  1.4058320947116505e+00 4.3885808563673556e-01 0.0000000000000000e+00  1.0076916385694876e+00 -7.0906732502845930e-03 0.0000000000000000e+00  1.5649528419397700e+00 1.6921409570602622e-01 0.0000000000000000e+00  1.3685241187388999e+00 -8.3314369896449428e-02 0.0000000000000000e+00  1.5895330303640312e+00 1.8411321911280486e-02 0.0000000000000000e+00  -7.5318758791570239e-02 -3.2068709090197482e-02 0.0000000000000000e+00  1.2771099525724929e+00 -3.4133588532530512e-01 0.0000000000000000e+00  1.3918947835427962e+00 7.5881134847647824e-01 0.0000000000000000e+00  1.5221977092140153e+00 7.3293403498563336e-02 0.0000000000000000e+00  9.9443805290393028e-01 -4.1951140503197003e-02 0.0000000000000000e+00  8.3545562775504678e-01 -1.1665943658613247e-01 0.0000000000000000e+00  8.0449073340324806e-01 2.0032353707425898e-02 0.0000000000000000e+00  1.3889399521039447e+00 -2.0871187713811606e-01 0.0000000000000000e+00  1.8615364935823631e+00 2.0015108906291998e-01 0.0000000000000000e+00  8.3838243543551927e-01 1.3188996172757844e-01 0.0000000000000000e+00  1.0703714055463778e+00 -2.4572660213079434e-01 0.0000000000000000e+00  9.6581354930973429e-01 -1.5669219373253387e-01 0.0000000000000000e+00  -3.2750490800950993e-01 -1.3765897426538168e-01 0.0000000000000000e+00  -2.5826459505162386e-01 -1.4194197167580233e-01 0.0000000000000000e+00  1.0031372787884834e+00 -1.7423777036152607e-03 0.0000000000000000e+00  9.5846024090723014e-01 1.4277479324276946e-03 0.0000000000000000e+00  2.5191616768692893e-01 5.6983393800803994e-01 0.0000000000000000e+00  1.6421470090388026e+00 -3.5074090500951692e-02 0.0000000000000000e+00  1.3580444944105248e+00 -4.1761096119268398e-01 0.0000000000000000e+00  8.3046916393845638e-01 3.0589182081202454e-02 0.0000000000000000e+00  1.3158906529919674e+00 1.0724488534445745e-02 0.0000000000000000e+00  8.7725435531712581e-01 -2.8820021453368231e-03 0.0000000000000000e+00  2.5724211431722915e-01 -1.9407066381895044e-01 0.0000000000000000e+00  1.2731867223596545e+00 -1.1225198607996496e-02 0.0000000000000000e+00  8.0751840601864855e-01 -5.2872792246617582e-02 0.0000000000000000e+00  1.0743778684773528e+00 1.1070391382006450e+00 0.0000000000000000e+00  1.6462812691673152e+00 9.4410947216137620e-01 0.0000000000000000e+00  4.4077644001369692e-01 6.1198256520475858e-01 0.0000000000000000e+00  3.0921120215165859e-01 -2.9230892733842401e-01 0.0000000000000000e+00  6.9774588323050257e-01 -1.0191877268952416e-02 0.0000000000000000e+00  -1.5988443485860485e-02 4.2656923210081708e-02 0.0000000000000000e+00  1.4063526558701549e+00 3.6374490146793337e-01 0.0000000000000000e+00  -6.6900153512728239e-02 -9.8317111292589868e-02 0.0000000000000000e+00  -4.8387949249918467e-02 -1.8441636701250566e-01 0.0000000000000000e+00  1.2616035102854961e+00 7.2881715191426121e-04 0.0000000000000000e+00  1.2682111938684211e+00 1.2248036348712875e-02 0.0000000000000000e+00  7.6325330430125726e-01 -1.0263809535061903e+00 0.0000000000000000e+00  8.4832857841520881e-01 -1.4382560933399904e-01 0.0000000000000000e+00  6.0957229211677832e-01 4.9045526264912147e-02 0.0000000000000000e+00  7.6993229272564401e-01 2.2501727659378346e-02 0.0000000000000000e+00  6.7849381511015860e-01 1.9951292566755537e-02 0.0000000000000000e+00  1.3979072256779397e+00 -4.8534214924734015e-01 0.0000000000000000e+00  1.3203313037220119e+00 -8.0265128865807500e-01 0.0000000000000000e+00  4.7587733466147797e-01 2.0745782160769360e-02 0.0000000000000000e+00  7.5251425849257414e-01 -1.7019666675982790e-02 0.0000000000000000e+00  -3.8169321129159849e-02 -2.5055218792856204e-01 0.0000000000000000e+00  9.2347861345448934e-01 -9.8477482831187645e-03 0.0000000000000000e+00  1.2274709773636785e+00 1.5579340301357311e-01 0.0000000000000000e+00  6.9217042001787521e-01 -3.5657313235867349e-02 0.0000000000000000e+00  1.7835599918502245e+00 9.9340683982129113e-02 0.0000000000000000e+00  1.4591384450058895e+00 -2.2273600495866779e-02 0.0000000000000000e+00  1.5580735294847541e+00 5.6483204588322833e-01 0.0000000000000000e+00  9.9686855895948179e-01 1.3804527294792573e-01 0.0000000000000000e+00  1.5587493509848087e+00 2.7034285969534447e-02 0.0000000000000000e+00  1.3740113687689781e+00 -2.3710338360358758e-02 0.0000000000000000e+00  1.4959427684414175e+00 -5.1497685497541058e-02 0.0000000000000000e+00  1.5083325990776610e+00 8.7010161267433037e-02 0.0000000000000000e+00  1.2638731774456433e+00 -1.7255204683449321e-02 0.0000000000000000e+00  1.1036974172537792e+00 9.7906935761722089e-02 0.0000000000000000e+00  1.7465135461264747e+00 2.9611425392392016e-01 0.0000000000000000e+00  1.8018892576790095e+00 4.9044539104605189e-01 0.0000000000000000e+00  1.4158527145353825e+00 1.5282227561183373e-01 0.0000000000000000e+00  1.5690883675662077e+00 1.299