<?xml version="1.0"?>
<VTKFile type="UnstructuredGrid"  version="0.1"  >
<UnstructuredGrid>
<Piece  NumberOfPoints="3852" NumberOfCells="7360">
<Points>
<DataArray  type="Float64"  NumberOfComponents="3"  format="ascii">0 0 0  0 0.41 0  2.2 0.41 0  2.2 0 0  0.2 0.15 0  0.15 0.2 0  0.2 0.25 0  0.25 0.2 0  0.2097545161007899 0.1509607359798352 0  0.219134171618224 0.153806023374423 0  0.2277785116509268 0.1584265193848371 0  0.2353553390592504 0.1646446609405956 0  0.2415734806150793 0.1722214883489481 0  0.2461939766255306 0.1808658283816641 0  0.249039264020151 0.1902454838991403 0  0.2490392640201666 0.2097545161007811 0  0.2461939766255869 0.2191341716182 0  0.2415734806151802 0.2277785116509009 0  0.2353553390594108 0.235355339059244 0  0.2277785116510524 0.2415734806150789 0  0.2191341716182962 0.2461939766255471 0  0.209754516100834 0.2490392640201561 0  0.1902454838992189 0.2490392640201666 0  0.1808658283818 0.2461939766255869 0  0.1722214883490991 0.2415734806151802 0  0.164644660940756 0.2353553390594108 0  0.1584265193849211 0.2277785116510524 0  0.1538060233744529 0.2191341716182962 0  0.150960735979844 0.209754516100834 0  0.1509607359798352 0.1902454838992101 0  0.153806023374423 0.180865828381776 0  0.1584265193848371 0.1722214883490732 0  0.1646446609405956 0.1646446609407496 0  0.1722214883489481 0.1584265193849207 0  0.1808658283816641 0.1538060233744694 0  0.1902454838991403 0.150960735979849 0  0.09999999999980318 0 0  0.1999999999996354 0 0  0.2999999999994593 0 0  0.3999999999991452 0 0  0.4999999999988309 0 0  0.599999999998495 0 0  0.6999999999982023 0 0  0.7999999999979096 0 0  0.8999999999975735 0 0  0.9999999999972848 0 0  1.099999999997053 0 0  1.199999999997309 0 0  1.299999999997566 0 0  1.399999999997821 0 0  1.49999999999809 0 0  1.599999999998377 0 0  1.69999999999859 0 0  1.799999999998877 0 0  1.899999999999145 0 0  1.999999999999386 0 0  2.099999999999693 0 0  2.2 0.08199999999981657 0  2.2 0.1639999999995688 0  2.2 0.2459999999995603 0  2.2 0.327999999999785 0  2.100000000000048 0.41 0  2.000000000000269 0.41 0  1.900000000000422 0.41 0  1.800000000000679 0.41 0  1.700000000000931 0.41 0  1.600000000001326 0.41 0  1.500000000001665 0.41 0  1.400000000002032 0.41 0  1.300000000002395 0.41 0  1.200000000002644 0.41 0  1.100000000002865 0.41 0  1.000000000002617 0.41 0  0.900000000002368 0.41 0  0.8000000000021192 0.41 0  0.7000000000018587 0.41 0  0.6000000000015786 0.41 0  0.5000000000013736 0.41 0  0.4000000000010933 0.41 0  0.3000000000008329 0.41 0  0.2000000000005997 0.41 0  0.1000000000003003 0.41 0  0 0.3280000000001975 0  0 0.2460000000004372 0  0 0.1640000000004437 0  0 0.08200000000021695 0  0.439039350479032 0.2235433210862024 0  0.3557293424662716 0.1539377961885917 0  0.3450132387946972 0.2399891502764809 0  0.2900756359792848 0.08507884665974728 0  0.2884413411145515 0.3059878288466324 0  0.2102195502178943 0.3385267178242456 0  0.137328909169326 0.3152847369018352 0  0.08490385663776813 0.2628976192695439 0  0.08063302347471875 0.188368977740952 0  0.1005937615311739 0.1162460982751979 0  0.1621860847198582 0.08598327887900903 0  0.3012864586130264 0.1926027915888804 0  1.999140000000448 0.2049999999995642 0  0.2742354912953259 0.1572259708446958 0  0.2871471664627305 0.2264358039321654 0  0.6542851578645765 0.1981889790488746 0  0.2651366296338276 0.2534562504463119 0  0.2371819217149928 0.0977949043027586 0  1.651678197071202 0.2145186615851206 0  1.349674714201118 0.2086119645070391 0  0.9627539291831038 0.2056711800839285 0  0.2360880502985623 0.2733043913425156 0  1.159884231859056 0.2050429640239795 0  0.2502927927237266 0.1358797630898622 0  0.2080582834123368 0.2835355213895352 0  0.1805439632603489 0.278338480667804 0  0.1486243506827335 0.2626014098227327 0  0.1266658889266303 0.2392753516137401 0  0.1179814841582247 0.2069380844236527 0  0.1225167704961566 0.1764957192948648 0  0.1357996569043286 0.1472158045151807 0  0.1619764829264572 0.126298308975886 0  0.1935640279204225 0.116654032325456 0  1.82457000000085 0.2346439024393236 0  0.8027657238591595 0.149277802568535 0  1.498563450727992 0.2632867809910664 0  0.2770405925201826 0.1924926016722167 0  0.470924801584011 0.09138612536042019 0  0.550693598792917 0.2898604497866635 0  0.381089831438127 0.3238078833671811 0  2.074516462495042 0.125705772324225 0  2.083599037046577 0.2769549245607841 0  0.2692296340100125 0.2210592970306522 0  0.7614733075682367 0.2839235561638241 0  1.536698221979284 0.1258192462655419 0  1.231809489345021 0.1282542717942667 0  1.054759157670174 0.1242749934189342 0  1.754535566851005 0.1223197024158991 0  1.90452621597739 0.1324728094649104 0  0.2672409321155211 0.178737994598723 0  1.254401531996246 0.2902808614622134 0  1.04350934597445 0.2986664252663559 0  0.0749710792305778 0.3208721925318313 0  0.5425289614095572 0.165152457827861 0  0.1663208394680799 0.2644065126118989 0  0.1471335176887868 0.2433864007787126 0  0.1345556779484054 0.219852318055334 0  0.131940483167677 0.1932967226753857 0  0.1941574795820069 0.2685534232066453 0  0.2226696214021025 0.1252682734732412 0  0.2193882214552426 0.2661718674478616 0  0.1396865053227576 0.1677617654469802 0  0.8749487631478475 0.295170577255529 0  1.424301820545763 0.1157348858866879 0  1.918515045506933 0.2902236143624367 0  1.744876807925144 0.306628844405037 0  0.2443979144126529 0.254353837216211 0  0.2569054246570621 0.2306780201523878 0  0.2632507216716993 0.2062296523407826 0  0.4609453431326088 0.3138128990490959 0  0.3578015395476809 0.08253318517696946 0  0.2529777826635333 0.155582948480283 0  0.1580369715200277 0.1487041474358234 0  0.652872088668587 0.3101079993636056 0  0.297147332491062 0.2558065812325378 0  0.6188247313471635 0.1101603945467571 0  0.8951149554961688 0.1123812542864208 0  1.592749166085722 0.2985190085719691 0  1.40420309431358 0.2992155383468256 0  1.649189110727275 0.1000387439201274 0  0.2301663900864273 0.1432830242131801 0  0.2064839406544439 0.1345771465164309 0  0.2548204572493643 0.1702022465417566 0  0.1606700828011604 0.2481621709908606 0  0.2605987457303776 0.1928909671966518 0  0.1826942838524941 0.2594610608897559 0  0.1456438338561037 0.2290651013631561 0  0.1387681034994896 0.2058679665896095 0  1.140902260384949 0.3081952438204152 0  2.123402621966431 0.2039515281261525 0  0.7272188829630218 0.1047469619375249 0  0.2060868819369127 0.2616331638469837 0  0.246763614216289 0.2411610007697902 0  0.1405961691450822 0.1819800466423126 0  1.149638048863541 0.08264492713269313 0  0.1809997740285721 0.1365020267363126 0  1.993198408221569 0.09755938404998035 0  0.2287111352430851 0.2547015941619741 0  0.3818716699056283 0.2060398770290832 0  0.39147508084147 0.2656155699545688 0  0.151201080877373 0.1608659990301362 0  0.0542521118046473 0.1382221876243976 0  0.06190301158313444 0.0685934933767465 0  1.317316039400266 0.1015983144534349 0  0.2176417279723976 0.1415790407114221 0  0.2401571300978209 0.1529210337009423 0  0.2618092962776011 0.3566662607419938 0  0.1941527094396574 0.1377969918002053 0  0.9590486261329707 0.3255353063371385 0  0.1708201090411339 0.1447474051814825 0  1.837592370686806 0.3302992722413595 0  0.3197015570210796 0.1212159119695666 0  0.4155281956943757 0.1409543952531078 0  0.0549491513262805 0.2307535706287103 0  0.1668210562270142 0.3605647861782867 0  0.2854688902460447 0.2093700809023571 0  2.013251581901814 0.3292746985146142 0  0.1192191106244758 0.2809901915857802 0  0.2487958366614321 0.04556523514103697 0  0.09061021186838321 0.2240174335271237 0  1.737143840576958 0.20912817770623 0  0.04515017012776967 0.2784708690411318 0  0.5347554646753627 0.08988970780599832 0  0.977104673723579 0.08241628541188413 0  0.336509991617897 0.2888965225844298 0  0.2569238041969055 0.2173711314485607 0  1.906541186051535 0.2125389476829634 0  0.1762338839607841 0.3102437166134606 0  1.449268841077636 0.201011295143529 0  0.8555371485878378 0.2099663446585434 0  1.837208236203613 0.07556229833764837 0  1.264402545318887 0.1992523923163096 0  1.068181074047183 0.2155119107017876 0  0.3158931250274742 0.3421721218291775 0  0.2731958384900449 0.2373435058667565 0  0.09875906484220501 0.1533097574901186 0  0.7355755433976705 0.2066339904079041 0  1.567440499207928 0.2049999999995983 0  1.329829828222916 0.3295825481537897 0  0.8214190147401245 0.07894167681990104 0  1.525459989258997 0.3394220200696043 0  0.1990897327079506 0.06300531675246424 0  0.244701762210989 0.3062404318132603 0  0.1033853772622983 0.3551443431224104 0  0.1178236825374896 0.07148041782551597 0  0.1558198999929474 0.04409380269139784 0  0.3389178979413869 0.198678920661321 0  0.310790717645908 0.2196004930752872 0  2.125022007676643 0.3402049371791425 0  2.130028889485561 0.06535501282233655 0  0.4821161335597635 0.1626909543876269 0  0.2838678108956019 0.1254276466262967 0  0.5062815929260498 0.2376271077316994 0  1.663059277092996 0.3422301118688678 0  1.82292665764828 0.1574809263836269 0  2.052538557905295 0.05717536030732174 0  0.3078251537889645 0.16056368457456 0  0.8108267070172145 0.3390047366820738 0  1.487254632568403 0.0703866281621833 0  0.155004430757041 0.2369517702015699 0  0.1725545045705267 0.2519594403466565 0  0.1445581653510352 0.2167994984574706 0  0.1420710285613199 0.1942747855116325 0  1.461861739291679 0.3471998553985149 0  0.2372128969196007 0.2453440460936858 0  0.1943665918892754 0.2580518465884657 0  0.2452139232912363 0.1629124725160763 0  0.2555786751481889 0.1825885041235872 0  2.14640473333793 0.2790222779730848 0  2.145589594789407 0.1282024626544199 0  0.1486651579751984 0.1726583296292201 0  0.550000000001476 0.3603327897285098 0  0.0505668771231032 0.3660023622363767 0  1.049999999997169 0.05217028468202135 0  1.244771793631775 0.05744029386223062 0  0.1356759337238615 0.1094447816941579 0  0.5872326411628903 0.2223148728195226 0  0.2168458206248643 0.2558159203714847 0  1.749999999998732 0.05166028789524129 0  0.2855257256666041 0.1763246086558152 0  1.92
[...]
<PointData  Vectors="f_22"> 
<DataArray  type="Float64"  Name="f_22"  NumberOfComponents="3" format="ascii">0.0000000000000000e+00 0.0000000000000000e+00 0.0000000000000000e+00  0.0000000000000000e+00 0.0000000000000000e+00 0.0000000000000000e+00  0.0000000000000000e+00 0.0000000000000000e+00 0.0000000000000000e+00  0.0000000000000000e+00 0.0000000000000000e+00 0.0000000000000000e+00  0.0000000000000000e+00 0.0000000000000000e+00 0.0000000000000000e+00  0.0000000000000000e+00 0.0000000000000000e+00 0.0000000000000000e+00  0.0000000000000000e+00 0.0000000000000000e+00 0.0000000000000000e+00  0.0000000000000000e+00 0.0000000000000000e+00 0.0000000000000000e+00  0.0000000000000000e+00 0.0000000000000000e+00 0.0000000000000000e+00  0.0000000000000000e+00 0.0000000000000000e+00 0.0000000000000000e+00  0.0000000000000000e+00 0.0000000000000000e+00 0.0000000000000000e+00  0.0000000000000000e+00 0.0000000000000000e+00 0.0000000000000000e+00  0.0000000000000000e+00 0.0000000000000000e+00 0.0000000000000000e+00  0.0000000000000000e+00 0.0000000000000000e+00 0.0000000000000000e+00  0.0000000000000000e+00 0.0000000000000000e+00 0.0000000000000000e+00  0.0000000000000000e+00 0.0000000000000000e+00 0.0000000000000000e+00  0.0000000000000000e+00 0.0000000000000000e+00 0.0000000000000000e+00  0.0000000000000000e+00 0.0000000000000000e+00 0.0000000000000000e+00  0.0000000000000000e+00 0.0000000000000000e+00 0.0000000000000000e+00  0.0000000000000000e+00 0.0000000000000000e+00 0.0000000000000000e+00  0.0000000000000000e+00 0.0000000000000000e+00 0.0000000000000000e+00  0.0000000000000000e+00 0.0000000000000000e+00 0.0000000000000000e+00  0.0000000000000000e+00 0.0000000000000000e+00 0.0000000000000000e+00  0.0000000000000000e+00 0.0000000000000000e+00 0.0000000000000000e+00  0.0000000000000000e+00 0.0000000000000000e+00 0.0000000000000000e+00  0.0000000000000000e+00 0.0000000000000000e+00 0.0000000000000000e+00  0.0000000000000000e+00 0.0000000000000000e+00 0.0000000000000000e+00  0.0000000000000000e+00 0.0000000000000000e+00 0.0000000000000000e+00  0.0000000000000000e+00 0.0000000000000000e+00 0.0000000000000000e+00  0.0000000000000000e+00 0.0000000000000000e+00 0.0000000000000000e+00  0.0000000000000000e+00 0.0000000000000000e+00 0.0000000000000000e+00  0.0000000000000000e+00 0.0000000000000000e+00 0.0000000000000000e+00  0.0000000000000000e+00 0.0000000000000000e+00 0.0000000000000000e+00  0.0000000000000000e+00 0.0000000000000000e+00 0.0000000000000000e+00  0.0000000000000000e+00 0.0000000000000000e+00 0.0000000000000000e+00  0.0000000000000000e+00 0.0000000000000000e+00 0.0000000000000000e+00  0.0000000000000000e+00 0.0000000000000000e+00 0.0000000000000000e+00  0.0000000000000000e+00 0.0000000000000000e+00 0.0000000000000000e+00  0.0000000000000000e+00 0.0000000000000000e+00 0.0000000000000000e+00  0.0000000000000000e+00 0.0000000000000000e+00 0.0000000000000000e+00  0.0000000000000000e+00 0.0000000000000000e+00 0.0000000000000000e+00  0.0000000000000000e+00 0.0000000000000000e+00 0.0000000000000000e+00  0.0000000000000000e+00 0.0000000000000000e+00 0.0000000000000000e+00  0.0000000000000000e+00 0.0000000000000000e+00 0.0000000000000000e+00  0.0000000000000000e+00 0.0000000000000000e+00 0.0000000000000000e+00  0.0000000000000000e+00 0.0000000000000000e+00 0.0000000000000000e+00  0.0000000000000000e+00 0.0000000000000000e+00 0.0000000000000000e+00  0.0000000000000000e+00 0.0000000000000000e+00 0.0000000000000000e+00  0.0000000000000000e+00 0.0000000000000000e+00 0.0000000000000000e+00  0.0000000000000000e+00 0.0000000000000000e+00 0.0000000000000000e+00  0.0000000000000000e+00 0.0000000000000000e+00 0.0000000000000000e+00  0.0000000000000000e+00 0.0000000000000000e+00 0.0000000000000000e+00  0.0000000000000000e+00 0.0000000000000000e+00 0.0000000000000000e+00  0.0000000000000000e+00 0.0000000000000000e+00 0.0000000000000000e+00  0.0000000000000000e+00 0.0000000000000000e+00 0.0000000000000000e+00  0.0000000000000000e+00 0.0000000000000000e+00 0.0000000000000000e+00  0.0000000000000000e+00 0.0000000000000000e+00 0.0000000000000000e+00  1.1044659302838857e+00 -3.0389524186907015e-05 0.0000000000000000e+00  1.2484984160641994e+00 -1.5600165941845545e-04 0.0000000000000000e+00  1.2486251021359620e+00 -1.4976040845704232e-05 0.0000000000000000e+00  1.1045009586925347e+00 1.0625050082525243e-04 0.0000000000000000e+00  0.0000000000000000e+00 0.0000000000000000e+00 0.0000000000000000e+00  0.0000000000000000e+00 0.0000000000000000e+00 0.0000000000000000e+00  0.0000000000000000e+00 0.0000000000000000e+00 0.0000000000000000e+00  0.0000000000000000e+00 0.0000000000000000e+00 0.0000000000000000e+00  0.0000000000000000e+00 0.0000000000000000e+00 0.0000000000000000e+00  0.0000000000000000e+00 0.0000000000000000e+00 0.0000000000000000e+00  0.0000000000000000e+00 0.0000000000000000e+00 0.0000000000000000e+00  0.0000000000000000e+00 0.0000000000000000e+00 0.0000000000000000e+00  0.0000000000000000e+00 0.0000000000000000e+00 0.0000000000000000e+00  0.0000000000000000e+00 0.0000000000000000e+00 0.0000000000000000e+00  0.0000000000000000e+00 0.0000000000000000e+00 0.0000000000000000e+00  0.0000000000000000e+00 0.0000000000000000e+00 0.0000000000000000e+00  0.0000000000000000e+00 0.0000000000000000e+00 0.0000000000000000e+00  0.0000000000000000e+00 0.0000000000000000e+00 0.0000000000000000e+00  0.0000000000000000e+00 0.0000000000000000e+00 0.0000000000000000e+00  0.0000000000000000e+00 0.0000000000000000e+00 0.0000000000000000e+00  0.0000000000000000e+00 0.0000000000000000e+00 0.0000000000000000e+00  0.0000000000000000e+00 0.0000000000000000e+00 0.0000000000000000e+00  0.0000000000000000e+00 0.0000000000000000e+00 0.0000000000000000e+00  0.0000000000000000e+00 0.0000000000000000e+00 0.0000000000000000e+00  0.0000000000000000e+00 0.0000000000000000e+00 0.0000000000000000e+00  9.6000004745462852e-01 0.0000000000000000e+00 0.0000000000000000e+00  1.4400000711832650e+00 0.0000000000000000e+00 0.0000000000000000e+00  1.4400000711858434e+00 0.0000000000000000e+00 0.0000000000000000e+00  9.6000004745826795e-01 0.0000000000000000e+00 0.0000000000000000e+00  1.8739110452254187e-01 9.9218293504121494e-02 0.0000000000000000e+00  2.8564669362786493e-01 1.7901583146447142e-01 0.0000000000000000e+00  1.2667089498671047e-01 1.7879299226371442e-01 0.0000000000000000e+00  1.8436098580824061e+00 -3.9382509193024558e-02 0.0000000000000000e+00  1.9539947994442100e+00 1.3875153879668817e-01 0.0000000000000000e+00  1.4616265858923312e+00 2.2897776667772321e-01 0.0000000000000000e+00  1.3106894935542615e+00 3.5411921506269867e-01 0.0000000000000000e+00  1.3295524549025335e+00 2.5420990182125502e-01 0.0000000000000000e+00  1.3063771751909523e+00 -7.9990157416585619e-02 0.0000000000000000e+00  1.2672167973533537e+00 -3.3023888088250358e-01 0.0000000000000000e+00  1.4160142814896501e+00 -3.7548927383156461e-01 0.0000000000000000e+00  -2.2629285745247779e-01 5.3734583144382873e-03 0.0000000000000000e+00  1.2504558874863871e+00 -4.3946798651509529e-03 0.0000000000000000e+00  6.6608831372753835e-02 -1.0019623870757684e-01 0.0000000000000000e+00  -1.0016726863203064e-01 8.5841298752627138e-02 0.0000000000000000e+00  9.1598201788411548e-01 2.5989321165627727e-01 0.0000000000000000e+00  2.0834925390641285e-01 4.8119555911032147e-02 0.0000000000000000e+00  1.8904852607286582e+00 -2.2739481046472668e-01 0.0000000000000000e+00  1.1939904333153317e+00 3.7288998750859857e-02 0.0000000000000000e+00  1.3040104018929282e+00 8.9722478586466453e-02 0.0000000000000000e+00  1.5940920311028310e+00 -2.1316121223190132e-01 0.0000000000000000e+00  1.6734939588225564e+00 2.2366984903338050e-01 0.0000000000000000e+00  1.5033457795657805e+00 1.0304281215803830e-01 0.0000000000000000e+00  9.4924563866847311e-01 -6.2006670852039009e-02 0.0000000000000000e+00  1.9841498276516059e+00 4.5899858643425973e-01 0.0000000000000000e+00  1.8517845659556669e+00 6.5253263620685320e-01 0.0000000000000000e+00  1.4846298814410606e+00 7.7367324121789260e-01 0.0000000000000000e+00  1.1424113463132055e+00 5.5537070303735947e-01 0.0000000000000000e+00  9.3827357692400404e-01 9.7137420288322854e-02 0.0000000000000000e+00  9.8645523270544788e-01 -4.0672955894292345e-01 0.0000000000000000e+00  1.2957825616710235e+00 -7.0681749792131132e-01 0.0000000000000000e+00  1.6576824768340150e+00 -7.2171749885553138e-01 0.0000000000000000e+00  1.9173454114242354e+00 -5.2570172106375179e-01 0.0000000000000000e+00  1.2743748979862273e+00 -1.9696257536052340e-02 0.0000000000000000e+00  1.2863553549072462e+00 -1.3822679850837264e-02 0.0000000000000000e+00  1.3461659633012302e+00 5.9459693469540664e-02 0.0000000000000000e+00  -1.3123784912962358e-01 -4.9530308195007103e-02 0.0000000000000000e+00  1.7021252089285550e+00 4.1355771406531100e-02 0.0000000000000000e+00  1.5306492128268805e+00 -3.6139382564660855e-01 0.0000000000000000e+00  1.9147999524507062e+00 -8.3716797430586479e-02 0.0000000000000000e+00  1.2283130836857306e+00 -6.4537205772933711e-04 0.0000000000000000e+00  1.2369247874892646e+00 -5.5606137414324465e-04 0.0000000000000000e+00  -8.2748397380994348e-02 7.3634679906437780e-02 0.0000000000000000e+00  1.5546431127452254e+00 1.2808745050481244e-02 0.0000000000000000e+00  1.3010965090958193e+00 -3.2553781860152856e-02 0.0000000000000000e+00  1.3609674451229965e+00 -1.2469729408955915e-01 0.0000000000000000e+00  1.6089608125116956e+00 1.2526251289919926e-01 0.0000000000000000e+00  1.2082758997921439e+00 7.6539431966445668e-03 0.0000000000000000e+00  1.2276315625987133e+00 -2.2092010117750328e-03 0.0000000000000000e+00  -8.3060343789063684e-02 -1.2225667803070094e-01 0.0000000000000000e+00  1.4242207840075505e+00 9.2073763849746422e-03 0.0000000000000000e+00  1.2227917585412578e+00 1.2027015614526761e-01 0.0000000000000000e+00  1.0766257263627359e+00 1.6826510537762007e-01 0.0000000000000000e+00  2.4035907606260454e-01 -4.0418527249455688e-01 0.0000000000000000e+00  1.7316088322190304e+00 8.6052177004132702e-01 0.0000000000000000e+00  1.2268443847119064e+00 9.3939108672352645e-01 0.0000000000000000e+00  7.5678842791814316e-01 5.0483565515298923e-01 0.0000000000000000e+00  6.4592356864876110e-01 -2.0492135389813393e-01 0.0000000000000000e+00  1.9903794131438248e+00 6.0609622659191564e-01 0.0000000000000000e+00  1.9374680559762256e+00 -2.9660556784338743e-01 0.0000000000000000e+00  1.4313460534892197e+00 2.1872481065615001e-01 0.0000000000000000e+00  9.6897353368649164e-01 -8.0704741859421181e-01 0.0000000000000000e+00  1.5668124649752904e+00 -2.9568880044248719e-01 0.0000000000000000e+00  1.2214646171377335e+00 -2.7240016979288795e-02 0.0000000000000000e+00  1.2307919644914882e+00 -6.2610417080664026e-03 0.0000000000000000e+00  1.2114978500716831e+00 -3.1582222532382953e-04 0.0000000000000000e+00  2.2401427676116289e-01 4.3097483984572998e-02 0.0000000000000000e+00  -6.1052053255011555e-02 8.0698577666211163e-02 0.0000000000000000e+00  -5.6347075588234055e-02 1.1859276831065171e-03 0.0000000000000000e+00  1.8760685737679987e+00 -3.4132176529630398e-01 0.0000000000000000e+00  1.7797957103763975e+00 1.0215574425107687e-01 0.0000000000000000e+00  1.1705047279556841e-02 -9.8869902104928714e-02 0.0000000000000000e+00  1.5195290232959675e+00 -1.0488103431560882e+00 0.0000000000000000e+00  1.3634554917578074e+00 1.0961409710084727e-01 0.0000000000000000e+00  3.4245149966387789e-01 5.4128706253139806e-02 0.0000000000000000e+00  1.8929642401684987e+00 4.3288708126657793e-01 0.0000000000000000e+00  1.1851322427857187e+00 -5.5213628790391288e-02 0.0000000000000000e+00  1.2425459581967830e+00 2.6804836163936124e-03 0.0000000000000000e+00  1.2715718463885772e+00 6.3217939266649315e-02 0.0000000000000000e+00  1.1738492082413221e+00 -1.9656218162990555e-02 0.0000000000000000e+00  4.5284730693724762e-01 -3.2223783883243678e-02 0.0000000000000000e+00  1.7306660468662116e+00 -3.4012774461117168e-01 0.0000000000000000e+00  -6.6316582410016187e-02 -1.3521796464758620e-01 0.0000000000000000e+00  1.4986604712935279e+00 1.1106214196124709e+00 0.0000000000000000e+00  -4.8906749802770211e-02 -7.7066849434890922e-02 0.0000000000000000e+00  1.8572246290284264e+00 7.6974739386687652e-01 0.0000000000000000e+00  8.3590061554815598e-01 9.1528985130242924e-01 0.0000000000000000e+00  4.2856417267074576e-01 1.9005391050997181e-01 0.0000000000000000e+00  1.2438855460934084e+00 -1.8176421551307602e-02 0.0000000000000000e+00  1.2512803175124680e+00 -5.8904748227661652e-04 0.0000000000000000e+00  1.3403988192501868e+00 1.8470459568663300e-01 0.0000000000000000e+00  1.3369163797976353e+00 2.5012616346648470e-01 0.0000000000000000e+00  -5.6792825889562047e-02 6.4895157700384828e-02 0.0000000000000000e+00  5.9750241268905990e-01 -6.3844479797773379e-01 0.0000000000000000e+00  8.9924940225281214e-01 -2.9181507988646979e-02 0.0000000000000000e+00  1.9519455121713551e+00 -8.0192254905604188e-01 0.0000000000000000e+00  1.1697278563208620e+00 -1.0239411000500514e-03 0.0000000000000000e+00  2.5984239945862536e-01 3.1694067700773210e-02 0.0000000000000000e+00  -3.7556061603636887e-01 3.3274497414625559e-01 0.0000000000000000e+00  1.0997883419196499e+00 4.1641426027359145e-02 0.0000000000000000e+00  1.1696164473138200e+00 -1.0952198291608950e+00 0.0000000000000000e+00  1.3203557831267476e+00 -1.4061942440220410e-01 0.0000000000000000e+00  8.8536425266441188e-01 -1.1504967054905951e-01 0.0000000000000000e+00  1.2061603638965226e+00 -5.9359336223103444e-02 0.0000000000000000e+00  7.3271067178035065e-01 -5.7794046778023335e-02 0.0000000000000000e+00  1.0459715139935953e-02 -5.9952454009864285e-02 0.0000000000000000e+00  1.4204311098187703e+00 9.2940376056042592e-02 0.0000000000000000e+00  1.8097994142543485e+00 -5.1553325649739867e-01 0.0000000000000000e+00  9.1764741192706700e-01 2.6449142366831605e-02 0.0000000000000000e+00  1.7802626558811014e+00 -1.0047832706573177e+00 0.0000000000000000e+00  1.0981547321512366e+00 9.9215605845988787e-04 0.0000000000000000e+00  1.6815424735772877e+00 7.7862752423217066e-02 0.0000000000000000e+00  7.5001067645431241e-01 2.5579973145605700e-01 0.0000000000000000e+00  1.4134163950198870e+00 8.1730159403285624e-02 0.0000000000000000e+00  1.0310011701451693e+00 1.6714988360708891e-01 0.0000000000000000e+00  -1.6130763475002891e-01 3.8808526967658685e-02 0.0000000000000000e+00  1.0990511916301291e+00 -5.3416696320954693e-04 0.0000000000000000e+00  1.3582097470872385e+00 4.3408398441011348e-01 0.0000000000000000e+00  1.3346262139414047e+00 -6.8918422607594940e-02 0.0000000000000000e+00  1.2692255542803674e+00 1.5846113632679654e-01 0.0000000000000000e+00  1.2179273530772814e+00 2.8886619520823633e-02 0.0000000000000000e+00  1.3029167781440667e+00 1.1205760042479326e-01 0.0000000000000000e+00  1.7916178944868890e+00 9.6229071050592599e-02 0.0000000000000000e+00  1.0782315551199106e+00 6.3695215084222420e-02 0.0000000000000000e+00  1.8384976584588197e+00 4.8726363538924351e-02 0.0000000000000000e+00  -3.6058946210284638e-02 4.3834258143129447e-02 0.0000000000000000e+00  1.2482143747730103e+00 -1.2468584330275648e-02 0.0000000000000000e+00  1.5718810507162504e+00 4.1600646243614814e-01 0.0000000000000000e+00  1.3221785612454793e+00 -5.8703623694563195e-02 0.0000000000000000e+00  1.3103492424088825e+00 -1.1827353054461602e-01 0.0000000000000000e+00  1.0656328137054052e+00 1.4368879919389914e-03 0.0000000000000000e+00  1.4182807136540230e+00 4.5345304792860607e-02 0.0000000000000000e+00  1.3045614882722403e+00 -9.2768530576972860e-02 0.0000000000000000e+00  1.6799640358842627e+00 3.9069967991350055e-02 0.0000000000000000e+00  -3.6444039380946182e-02 8.5427145505451857e-02 0.0000000000000000e+00  1.2716525301953718e+00 -3.2630989756813278e-01 0.0000000000000000e+00  1.2208611764146700e+00 4.4030729422751413e-01 0.0000000000000000e+00  1.1889334365371556e+00 -5.9666140530326893e-02 0.0000000000000000e+00  9.6579152477590435e-01 3.9214581047869047e-02 0.0000000000000000e+00  9.7089727721896180e-01 -1.0596411427756264e-01 0.0000000000000000e+00  1.0104736107209447e+00 3.4121426512149215e-02 0.0000000000000000e+00  1.3782682531869472e+00 -2.1261313600264545e-01 0.0000000000000000e+00  1.8894063550914986e+00 2.4926816613067843e-01 0.0000000000000000e+00  8.4413292409157537e-01 1.3991405002808965e-01 0.0000000000000000e+00  1.0652718794026437e+00 -2.4030300079489306e-01 0.0000000000000000e+00  9.5881807859182144e-01 -1.5528204883473273e-01 0.0000000000000000e+00  -3.4335952949037685e-01 1.5305861499605564e-01 0.0000000000000000e+00  -1.8197420070969575e-01 1.0721317453570861e-01 0.0000000000000000e+00  1.0259960656786933e+00 9.0024011810823672e-05 0.0000000000000000e+00  9.9067571492696860e-01 -2.8547784436263060e-05 0.0000000000000000e+00  -8.4881962245298148e-02 -5.4734540394217893e-02 0.0000000000000000e+00  1.5388491946802030e+00 -3.1116353232033506e-02 0.0000000000000000e+00  1.0647851735319964e+00 -6.3165378702184583e-01 0.0000000000000000e+00  1.0053703664604716e+00 1.2483051537315745e-03 0.0000000000000000e+00  1.2152308701272849e+00 -8.5713454323416618e-03 0.0000000000000000e+00  9.1505095475259557e-01 -1.5056322336076238e-04 0.0000000000000000e+00  6.1950169659604787e-02 -2.6871038657786433e-02 0.0000000000000000e+00  1.0727052623065225e+00 -1.5235008789871826e-01 0.0000000000000000e+00  9.7165573457497767e-01 -2.8108024043792559e-02 0.0000000000000000e+00  1.0833117415963949e+00 1.1258890039443687e+00 0.0000000000000000e+00  1.6417623208374692e+00 9.5224398991003234e-01 0.0000000000000000e+00  4.4735732511811788e-01 6.4082050482397601e-01 0.0000000000000000e+00  3.0573583517027375e-01 -2.5971143318890538e-01 0.0000000000000000e+00  8.7283917233304653e-01 5.8242088477564395e-02 0.0000000000000000e+00  -3.7421267652671404e-02 4.9105243397852931e-02 0.0000000000000000e+00  1.3650910823439883e+00 3.6593627020240288e-01 0.0000000000000000e+00  -6.4643167989532097e-02 -9.4728792753284607e-02 0.0000000000000000e+00  -4.7441578806417410e-02 -1.1311224004972933e-01 0.0000000000000000e+00  1.2346631899131297e+00 -6.0708957852477235e-05 0.0000000000000000e+00  1.2315332891172559e+00 -1.9027808279100216e-04 0.0000000000000000e+00  7.4903513918001663e-01 -9.9743617417084318e-01 0.0000000000000000e+00  9.5943566708978656e-01 -9.9663025719346321e-02 0.0000000000000000e+00  6.1060659489720426e-01 5.1199159589171490e-02 0.0000000000000000e+00  5.4354200451423806e-01 4.8167512083434831e-02 0.0000000000000000e+00  7.0107816826835900e-01 -6.5466713724355696e-02 0.0000000000000000e+00  1.3868859265514863e+00 -4.7477049156882123e-01 0.0000000000000000e+00  4.9640090220908251e-01 -5.4492491168006352e-01 0.0000000000000000e+00  4.2117847109008311e-01 3.0439421882693791e-02 0.0000000000000000e+00  8.6047222600667383e-01 2.7326305319804053e-03 0.0000000000000000e+00  -1.1355985554526778e-01 -8.2901727228451835e-02 0.0000000000000000e+00  9.8603720395434014e-01 -5.5588318101282611e-04 0.0000000000000000e+00  1.4613549436391216e+00 7.2069822511310999e-02 0.0000000000000000e+00  8.6463868203586924e-01 -1.9597194967725242e-02 0.0000000000000000e+00  1.7303865617980836e+00 1.6231227737580317e-01 0.0000000000000000e+00  1.4588405090152980e+00 -1.8022284313357513e-02 0.0000000000000000e+00  1.5649511589151419e+00 5.8716187761982919e-01 0.0000000000000000e+00  1.1795002031435251e+00 -1.0982430637378880e-02 0.0000000000000000e+00  1.2519080953122572e+00 1.8867066339802931e-02 0.0000000000000000e+00  1.2057881291072803e+00 4.8577047390661099e-02 0.0000000000000000e+00  1.2898352764058216e+00 2.1600490339640104e-02 0.0000000000000000e+00  1.2110679143987459e+00 2.3831448603434786e-02 0.0000000000000000e+00  1.2042211992024523e+00 -5.3038623228490308e-03 0.0000000000000000e+00  1.1650097809896551e+00 -8.7121431775573785e-02 0.0000000000000000e+00  1.6622081575494680e+00 6.5475401976093459e-02 0.0000000000000000e+00  1.6650882053216549e+00 2.6129520508104867e-02 0.0000000000000000e+00  1.2514055588632731e+00 6.9750172653163828e-02 0.0000000000000000e+00  1.7485879639319637e+00 1.1494201395