<?xml version="1.0"?>
<VTKFile type="UnstructuredGrid"  version="0.1"  >
<UnstructuredGrid>
<Piece  NumberOfPoints="3852" NumberOfCells="7360">
<Points>
<DataArray  type="Float64"  NumberOfComponents="3"  format="ascii">0 0 0  0 0.41 0  2.2 0.41 0  2.2 0 0  0.2 0.15 0  0.15 0.2 0  0.2 0.25 0  0.25 0.2 0  0.2097545161007899 0.1509607359798352 0  0.219134171618224 0.153806023374423 0  0.2277785116509268 0.1584265193848371 0  0.2353553390592504 0.1646446609405956 0  0.2415734806150793 0.1722214883489481 0  0.2461939766255306 0.1808658283816641 0  0.249039264020151 0.1902454838991403 0  0.2490392640201666 0.2097545161007811 0  0.2461939766255869 0.2191341716182 0  0.2415734806151802 0.2277785116509009 0  0.2353553390594108 0.235355339059244 0  0.2277785116510524 0.2415734806150789 0  0.2191341716182962 0.2461939766255471 0  0.209754516100834 0.2490392640201561 0  0.1902454838992189 0.2490392640201666 0  0.1808658283818 0.2461939766255869 0  0.1722214883490991 0.2415734806151802 0  0.164644660940756 0.2353553390594108 0  0.1584265193849211 0.2277785116510524 0  0.1538060233744529 0.2191341716182962 0  0.150960735979844 0.209754516100834 0  0.1509607359798352 0.1902454838992101 0  0.153806023374423 0.180865828381776 0  0.1584265193848371 0.1722214883490732 0  0.1646446609405956 0.1646446609407496 0  0.1722214883489481 0.1584265193849207 0  0.1808658283816641 0.1538060233744694 0  0.1902454838991403 0.150960735979849 0  0.09999999999980318 0 0  0.1999999999996354 0 0  0.2999999999994593 0 0  0.3999999999991452 0 0  0.4999999999988309 0 0  0.599999999998495 0 0  0.6999999999982023 0 0  0.7999999999979096 0 0  0.8999999999975735 0 0  0.9999999999972848 0 0  1.099999999997053 0 0  1.199999999997309 0 0  1.299999999997566 0 0  1.399999999997821 0 0  1.49999999999809 0 0  1.599999999998377 0 0  1.69999999999859 0 0  1.799999999998877 0 0  1.899999999999145 0 0  1.999999999999386 0 0  2.099999999999693 0 0  2.2 0.08199999999981657 0  2.2 0.1639999999995688 0  2.2 0.2459999999995603 0  2.2 0.327999999999785 0  2.100000000000048 0.41 0  2.000000000000269 0.41 0  1.900000000000422 0.41 0  1.800000000000679 0.41 0  1.700000000000931 0.41 0  1.600000000001326 0.41 0  1.500000000001665 0.41 0  1.400000000002032 0.41 0  1.300000000002395 0.41 0  1.200000000002644 0.41 0  1.100000000002865 0.41 0  1.000000000002617 0.41 0  0.900000000002368 0.41 0  0.8000000000021192 0.41 0  0.7000000000018587 0.41 0  0.6000000000015786 0.41 0  0.5000000000013736 0.41 0  0.4000000000010933 0.41 0  0.3000000000008329 0.41 0  0.2000000000005997 0.41 0  0.1000000000003003 0.41 0  0 0.3280000000001975 0  0 0.2460000000004372 0  0 0.1640000000004437 0  0 0.08200000000021695 0  0.439039350479032 0.2235433210862024 0  0.3557293424662716 0.1539377961885917 0  0.3450132387946972 0.2399891502764809 0  0.2900756359792848 0.08507884665974728 0  0.2884413411145515 0.3059878288466324 0  0.2102195502178943 0.3385267178242456 0  0.137328909169326 0.3152847369018352 0  0.08490385663776813 0.2628976192695439 0  0.08063302347471875 0.188368977740952 0  0.1005937615311739 0.1162460982751979 0  0.1621860847198582 0.08598327887900903 0  0.3012864586130264 0.1926027915888804 0  1.999140000000448 0.2049999999995642 0  0.2742354912953259 0.1572259708446958 0  0.2871471664627305 0.2264358039321654 0  0.6542851578645765 0.1981889790488746 0  0.2651366296338276 0.2534562504463119 0  0.2371819217149928 0.0977949043027586 0  1.651678197071202 0.2145186615851206 0  1.349674714201118 0.2086119645070391 0  0.9627539291831038 0.2056711800839285 0  0.2360880502985623 0.2733043913425156 0  1.159884231859056 0.2050429640239795 0  0.2502927927237266 0.1358797630898622 0  0.2080582834123368 0.2835355213895352 0  0.1805439632603489 0.278338480667804 0  0.1486243506827335 0.2626014098227327 0  0.1266658889266303 0.2392753516137401 0  0.1179814841582247 0.2069380844236527 0  0.1225167704961566 0.1764957192948648 0  0.1357996569043286 0.1472158045151807 0  0.1619764829264572 0.126298308975886 0  0.1935640279204225 0.116654032325456 0  1.82457000000085 0.2346439024393236 0  0.8027657238591595 0.149277802568535 0  1.498563450727992 0.2632867809910664 0  0.2770405925201826 0.1924926016722167 0  0.470924801584011 0.09138612536042019 0  0.550693598792917 0.2898604497866635 0  0.381089831438127 0.3238078833671811 0  2.074516462495042 0.125705772324225 0  2.083599037046577 0.2769549245607841 0  0.2692296340100125 0.2210592970306522 0  0.7614733075682367 0.2839235561638241 0  1.536698221979284 0.1258192462655419 0  1.231809489345021 0.1282542717942667 0  1.054759157670174 0.1242749934189342 0  1.754535566851005 0.1223197024158991 0  1.90452621597739 0.1324728094649104 0  0.2672409321155211 0.178737994598723 0  1.254401531996246 0.2902808614622134 0  1.04350934597445 0.2986664252663559 0  0.0749710792305778 0.3208721925318313 0  0.5425289614095572 0.165152457827861 0  0.1663208394680799 0.2644065126118989 0  0.1471335176887868 0.2433864007787126 0  0.1345556779484054 0.219852318055334 0  0.131940483167677 0.1932967226753857 0  0.1941574795820069 0.2685534232066453 0  0.2226696214021025 0.1252682734732412 0  0.2193882214552426 0.2661718674478616 0  0.1396865053227576 0.1677617654469802 0  0.8749487631478475 0.295170577255529 0  1.424301820545763 0.1157348858866879 0  1.918515045506933 0.2902236143624367 0  1.744876807925144 0.306628844405037 0  0.2443979144126529 0.254353837216211 0  0.2569054246570621 0.2306780201523878 0  0.2632507216716993 0.2062296523407826 0  0.4609453431326088 0.3138128990490959 0  0.3578015395476809 0.08253318517696946 0  0.2529777826635333 0.155582948480283 0  0.1580369715200277 0.1487041474358234 0  0.652872088668587 0.3101079993636056 0  0.297147332491062 0.2558065812325378 0  0.6188247313471635 0.1101603945467571 0  0.8951149554961688 0.1123812542864208 0  1.592749166085722 0.2985190085719691 0  1.40420309431358 0.2992155383468256 0  1.649189110727275 0.1000387439201274 0  0.2301663900864273 0.1432830242131801 0  0.2064839406544439 0.1345771465164309 0  0.2548204572493643 0.1702022465417566 0  0.1606700828011604 0.2481621709908606 0  0.2605987457303776 0.1928909671966518 0  0.1826942838524941 0.2594610608897559 0  0.1456438338561037 0.2290651013631561 0  0.1387681034994896 0.2058679665896095 0  1.140902260384949 0.3081952438204152 0  2.123402621966431 0.2039515281261525 0  0.7272188829630218 0.1047469619375249 0  0.2060868819369127 0.2616331638469837 0  0.246763614216289 0.2411610007697902 0  0.1405961691450822 0.1819800466423126 0  1.149638048863541 0.08264492713269313 0  0.1809997740285721 0.1365020267363126 0  1.993198408221569 0.09755938404998035 0  0.2287111352430851 0.2547015941619741 0  0.3818716699056283 0.2060398770290832 0  0.39147508084147 0.2656155699545688 0  0.151201080877373 0.1608659990301362 0  0.0542521118046473 0.1382221876243976 0  0.06190301158313444 0.0685934933767465 0  1.317316039400266 0.1015983144534349 0  0.2176417279723976 0.1415790407114221 0  0.2401571300978209 0.1529210337009423 0  0.2618092962776011 0.3566662607419938 0  0.1941527094396574 0.1377969918002053 0  0.9590486261329707 0.3255353063371385 0  0.1708201090411339 0.1447474051814825 0  1.837592370686806 0.3302992722413595 0  0.3197015570210796 0.1212159119695666 0  0.4155281956943757 0.1409543952531078 0  0.0549491513262805 0.2307535706287103 0  0.1668210562270142 0.3605647861782867 0  0.2854688902460447 0.2093700809023571 0  2.013251581901814 0.3292746985146142 0  0.1192191106244758 0.2809901915857802 0  0.2487958366614321 0.04556523514103697 0  0.09061021186838321 0.2240174335271237 0  1.737143840576958 0.20912817770623 0  0.04515017012776967 0.2784708690411318 0  0.5347554646753627 0.08988970780599832 0  0.977104673723579 0.08241628541188413 0  0.336509991617897 0.2888965225844298 0  0.2569238041969055 0.2173711314485607 0  1.906541186051535 0.2125389476829634 0  0.1762338839607841 0.3102437166134606 0  1.449268841077636 0.201011295143529 0  0.8555371485878378 0.2099663446585434 0  1.837208236203613 0.07556229833764837 0  1.264402545318887 0.1992523923163096 0  1.068181074047183 0.2155119107017876 0  0.3158931250274742 0.3421721218291775 0  0.2731958384900449 0.2373435058667565 0  0.09875906484220501 0.1533097574901186 0  0.7355755433976705 0.2066339904079041 0  1.567440499207928 0.2049999999995983 0  1.329829828222916 0.3295825481537897 0  0.8214190147401245 0.07894167681990104 0  1.525459989258997 0.3394220200696043 0  0.1990897327079506 0.06300531675246424 0  0.244701762210989 0.3062404318132603 0  0.1033853772622983 0.3551443431224104 0  0.1178236825374896 0.07148041782551597 0  0.1558198999929474 0.04409380269139784 0  0.3389178979413869 0.198678920661321 0  0.310790717645908 0.2196004930752872 0  2.125022007676643 0.3402049371791425 0  2.130028889485561 0.06535501282233655 0  0.4821161335597635 0.1626909543876269 0  0.2838678108956019 0.1254276466262967 0  0.5062815929260498 0.2376271077316994 0  1.663059277092996 0.3422301118688678 0  1.82292665764828 0.1574809263836269 0  2.052538557905295 0.05717536030732174 0  0.3078251537889645 0.16056368457456 0  0.8108267070172145 0.3390047366820738 0  1.487254632568403 0.0703866281621833 0  0.155004430757041 0.2369517702015699 0  0.1725545045705267 0.2519594403466565 0  0.1445581653510352 0.2167994984574706 0  0.1420710285613199 0.1942747855116325 0  1.461861739291679 0.3471998553985149 0  0.2372128969196007 0.2453440460936858 0  0.1943665918892754 0.2580518465884657 0  0.2452139232912363 0.1629124725160763 0  0.2555786751481889 0.1825885041235872 0  2.14640473333793 0.2790222779730848 0  2.145589594789407 0.1282024626544199 0  0.1486651579751984 0.1726583296292201 0  0.550000000001476 0.3603327897285098 0  0.0505668771231032 0.3660023622363767 0  1.049999999997169 0.05217028468202135 0  1.244771793631775 0.05744029386223062 0  0.1356759337238615 0.1094447816941579 0  0.5872326411628903 0.2223148728195226 0  0.2168458206248643 0.2558159203714847 0  1.749999999998732 0.05166028789524129 0  0.2855257256666041 0.1763246086558152 0  1.92
[...]
<PointData  Vectors="f_22"> 
<DataArray  type="Float64"  Name="f_22"  NumberOfComponents="3" format="ascii">0.0000000000000000e+00 0.0000000000000000e+00 0.0000000000000000e+00  0.0000000000000000e+00 0.0000000000000000e+00 0.0000000000000000e+00  0.0000000000000000e+00 0.0000000000000000e+00 0.0000000000000000e+00  0.0000000000000000e+00 0.0000000000000000e+00 0.0000000000000000e+00  0.0000000000000000e+00 0.0000000000000000e+00 0.0000000000000000e+00  0.0000000000000000e+00 0.0000000000000000e+00 0.0000000000000000e+00  0.0000000000000000e+00 0.0000000000000000e+00 0.0000000000000000e+00  0.0000000000000000e+00 0.0000000000000000e+00 0.0000000000000000e+00  0.0000000000000000e+00 0.0000000000000000e+00 0.0000000000000000e+00  0.0000000000000000e+00 0.0000000000000000e+00 0.0000000000000000e+00  0.0000000000000000e+00 0.0000000000000000e+00 0.0000000000000000e+00  0.0000000000000000e+00 0.0000000000000000e+00 0.0000000000000000e+00  0.0000000000000000e+00 0.0000000000000000e+00 0.0000000000000000e+00  0.0000000000000000e+00 0.0000000000000000e+00 0.0000000000000000e+00  0.0000000000000000e+00 0.0000000000000000e+00 0.0000000000000000e+00  0.0000000000000000e+00 0.0000000000000000e+00 0.0000000000000000e+00  0.0000000000000000e+00 0.0000000000000000e+00 0.0000000000000000e+00  0.0000000000000000e+00 0.0000000000000000e+00 0.0000000000000000e+00  0.0000000000000000e+00 0.0000000000000000e+00 0.0000000000000000e+00  0.0000000000000000e+00 0.0000000000000000e+00 0.0000000000000000e+00  0.0000000000000000e+00 0.0000000000000000e+00 0.0000000000000000e+00  0.0000000000000000e+00 0.0000000000000000e+00 0.0000000000000000e+00  0.0000000000000000e+00 0.0000000000000000e+00 0.0000000000000000e+00  0.0000000000000000e+00 0.0000000000000000e+00 0.0000000000000000e+00  0.0000000000000000e+00 0.0000000000000000e+00 0.0000000000000000e+00  0.0000000000000000e+00 0.0000000000000000e+00 0.0000000000000000e+00  0.0000000000000000e+00 0.0000000000000000e+00 0.0000000000000000e+00  0.0000000000000000e+00 0.0000000000000000e+00 0.0000000000000000e+00  0.0000000000000000e+00 0.0000000000000000e+00 0.0000000000000000e+00  0.0000000000000000e+00 0.0000000000000000e+00 0.0000000000000000e+00  0.0000000000000000e+00 0.0000000000000000e+00 0.0000000000000000e+00  0.0000000000000000e+00 0.0000000000000000e+00 0.0000000000000000e+00  0.0000000000000000e+00 0.0000000000000000e+00 0.0000000000000000e+00  0.0000000000000000e+00 0.0000000000000000e+00 0.0000000000000000e+00  0.0000000000000000e+00 0.0000000000000000e+00 0.0000000000000000e+00  0.0000000000000000e+00 0.0000000000000000e+00 0.0000000000000000e+00  0.0000000000000000e+00 0.0000000000000000e+00 0.0000000000000000e+00  0.0000000000000000e+00 0.0000000000000000e+00 0.0000000000000000e+00  0.0000000000000000e+00 0.0000000000000000e+00 0.0000000000000000e+00  0.0000000000000000e+00 0.0000000000000000e+00 0.0000000000000000e+00  0.0000000000000000e+00 0.0000000000000000e+00 0.0000000000000000e+00  0.0000000000000000e+00 0.0000000000000000e+00 0.0000000000000000e+00  0.0000000000000000e+00 0.0000000000000000e+00 0.0000000000000000e+00  0.0000000000000000e+00 0.0000000000000000e+00 0.0000000000000000e+00  0.0000000000000000e+00 0.0000000000000000e+00 0.0000000000000000e+00  0.0000000000000000e+00 0.0000000000000000e+00 0.0000000000000000e+00  0.0000000000000000e+00 0.0000000000000000e+00 0.0000000000000000e+00  0.0000000000000000e+00 0.0000000000000000e+00 0.0000000000000000e+00  0.0000000000000000e+00 0.0000000000000000e+00 0.0000000000000000e+00  0.0000000000000000e+00 0.0000000000000000e+00 0.0000000000000000e+00  0.0000000000000000e+00 0.0000000000000000e+00 0.0000000000000000e+00  0.0000000000000000e+00 0.0000000000000000e+00 0.0000000000000000e+00  0.0000000000000000e+00 0.0000000000000000e+00 0.0000000000000000e+00  0.0000000000000000e+00 0.0000000000000000e+00 0.0000000000000000e+00  0.0000000000000000e+00 0.0000000000000000e+00 0.0000000000000000e+00  0.0000000000000000e+00 0.0000000000000000e+00 0.0000000000000000e+00  0.0000000000000000e+00 0.0000000000000000e+00 0.0000000000000000e+00  1.0853492547531378e+00 -1.3088346789371997e-03 0.0000000000000000e+00  1.2530618117075902e+00 -1.3129337373247642e-02 0.0000000000000000e+00  1.2903027208872775e+00 -1.3368439517753235e-02 0.0000000000000000e+00  1.0960014700152561e+00 -2.1293172771241512e-03 0.0000000000000000e+00  0.0000000000000000e+00 0.0000000000000000e+00 0.0000000000000000e+00  0.0000000000000000e+00 0.0000000000000000e+00 0.0000000000000000e+00  0.0000000000000000e+00 0.0000000000000000e+00 0.0000000000000000e+00  0.0000000000000000e+00 0.0000000000000000e+00 0.0000000000000000e+00  0.0000000000000000e+00 0.0000000000000000e+00 0.0000000000000000e+00  0.0000000000000000e+00 0.0000000000000000e+00 0.0000000000000000e+00  0.0000000000000000e+00 0.0000000000000000e+00 0.0000000000000000e+00  0.0000000000000000e+00 0.0000000000000000e+00 0.0000000000000000e+00  0.0000000000000000e+00 0.0000000000000000e+00 0.0000000000000000e+00  0.0000000000000000e+00 0.0000000000000000e+00 0.0000000000000000e+00  0.0000000000000000e+00 0.0000000000000000e+00 0.0000000000000000e+00  0.0000000000000000e+00 0.0000000000000000e+00 0.0000000000000000e+00  0.0000000000000000e+00 0.0000000000000000e+00 0.0000000000000000e+00  0.0000000000000000e+00 0.0000000000000000e+00 0.0000000000000000e+00  0.0000000000000000e+00 0.0000000000000000e+00 0.0000000000000000e+00  0.0000000000000000e+00 0.0000000000000000e+00 0.0000000000000000e+00  0.0000000000000000e+00 0.0000000000000000e+00 0.0000000000000000e+00  0.0000000000000000e+00 0.0000000000000000e+00 0.0000000000000000e+00  0.0000000000000000e+00 0.0000000000000000e+00 0.0000000000000000e+00  0.0000000000000000e+00 0.0000000000000000e+00 0.0000000000000000e+00  0.0000000000000000e+00 0.0000000000000000e+00 0.0000000000000000e+00  9.6000004629988012e-01 0.0000000000000000e+00 0.0000000000000000e+00  1.4400000694511428e+00 0.0000000000000000e+00 0.0000000000000000e+00  1.4400000694537209e+00 0.0000000000000000e+00 0.0000000000000000e+00  9.6000004630351976e-01 0.0000000000000000e+00 0.0000000000000000e+00  5.0445135568616328e-01 -6.6460543669998651e-01 0.0000000000000000e+00  8.8295009447827061e-02 2.1854418281726626e-01 0.0000000000000000e+00  3.7780936726850661e-01 2.1509782522639107e-01 0.0000000000000000e+00  1.7931516322885803e+00 -2.7358314065605092e-02 0.0000000000000000e+00  1.9830716184855384e+00 8.9631704501105636e-02 0.0000000000000000e+00  1.4708892738229455e+00 2.1846929358743028e-01 0.0000000000000000e+00  1.3200111610966310e+00 3.5935575632396349e-01 0.0000000000000000e+00  1.3338919152755282e+00 2.6564145753778101e-01 0.0000000000000000e+00  1.3059962402748415e+00 -6.4599941605718428e-02 0.0000000000000000e+00  1.2620873031211994e+00 -3.1688466100105483e-01 0.0000000000000000e+00  1.4030948955093054e+00 -3.6257102148872977e-01 0.0000000000000000e+00  -2.4005833281074782e-01 1.7957001915765319e-01 0.0000000000000000e+00  1.2428837808073816e+00 2.6055894568203265e-02 0.0000000000000000e+00  3.3281387016737857e-02 -7.5029703150861918e-03 0.0000000000000000e+00  -4.0754326757356789e-02 2.1849728854698233e-01 0.0000000000000000e+00  1.2335769314906140e+00 6.7702673032315441e-01 0.0000000000000000e+00  2.5284772356766894e-01 8.5612032473312047e-02 0.0000000000000000e+00  1.8680397395370356e+00 -2.0694129869789646e-01 0.0000000000000000e+00  1.3405788652024904e+00 1.0849070950593005e-01 0.0000000000000000e+00  1.6839753469484582e+00 -9.2651528305743330e-02 0.0000000000000000e+00  1.3905886034906301e+00 -2.6639208219579263e-01 0.0000000000000000e+00  1.7329797261543087e+00 2.1753489475000820e-01 0.0000000000000000e+00  1.4684199465161756e+00 2.9333075290466949e-02 0.0000000000000000e+00  9.8537439208732636e-01 -3.6140217506982632e-02 0.0000000000000000e+00  2.0113407157807504e+00 4.5108271616824319e-01 0.0000000000000000e+00  1.8760446267589368e+00 6.5593013205002415e-01 0.0000000000000000e+00  1.5023708875926589e+00 7.8906090264776685e-01 0.0000000000000000e+00  1.1525601380986485e+00 5.7682877304523594e-01 0.0000000000000000e+00  9.4070652675364697e-01 1.2153269371212871e-01 0.0000000000000000e+00  9.8210110891020364e-01 -3.8279995847810916e-01 0.0000000000000000e+00  1.2865211507901952e+00 -6.8657548029793558e-01 0.0000000000000000e+00  1.6458149666817483e+00 -7.0525088020856119e-01 0.0000000000000000e+00  1.9048724253771385e+00 -5.0970667279330317e-01 0.0000000000000000e+00  1.3669397563214354e+00 -4.3860957627351871e-02 0.0000000000000000e+00  8.6893200888616129e-01 -4.1353033433354958e-01 0.0000000000000000e+00  1.2826017536715320e+00 -4.7284073316852623e-02 0.0000000000000000e+00  -1.3943286224683557e-01 1.0033787892352450e-01 0.0000000000000000e+00  1.8864938966426541e+00 1.1261469214702510e-01 0.0000000000000000e+00  1.1783402446329230e+00 6.0889167410109281e-02 0.0000000000000000e+00  1.8027123983935984e+00 -2.2815726898718497e-01 0.0000000000000000e+00  1.2321277997893569e+00 1.0630064632370820e-02 0.0000000000000000e+00  1.2887845890598753e+00 -2.7274483496169829e-03 0.0000000000000000e+00  -6.4628415623104590e-02 1.9748863681814524e-01 0.0000000000000000e+00  1.9469292478431028e+00 -5.8428662313224922e-01 0.0000000000000000e+00  1.4204327852560981e+00 -3.8755625661384997e-03 0.0000000000000000e+00  1.0618736746588027e+00 9.0330375418495187e-02 0.0000000000000000e+00  1.2610159464300494e+00 1.2522351508847174e-01 0.0000000000000000e+00  1.1834550258256646e+00 2.3403732139569457e-03 0.0000000000000000e+00  1.2679314056912252e+00 -2.5859108693054540e-02 0.0000000000000000e+00  -9.8177528337946629e-02 -1.4408571691928263e-04 0.0000000000000000e+00  1.3716974350654718e+00 -1.5123855831734792e-01 0.0000000000000000e+00  9.4607021133537839e-01 1.1837540689438247e-01 0.0000000000000000e+00  1.0791943067858139e+00 1.7312588114283370e-01 0.0000000000000000e+00  1.2615653306149293e+00 2.0337612297050794e-01 0.0000000000000000e+00  1.7552553277709484e+00 8.7237944173954829e-01 0.0000000000000000e+00  1.2439525249747412e+00 9.6167851198912113e-01 0.0000000000000000e+00  7.6474591272552872e-01 5.3244476667742502e-01 0.0000000000000000e+00  6.4436407722830269e-01 -1.7657976072516562e-01 0.0000000000000000e+00  2.0234868095822311e+00 6.0772642601802107e-01 0.0000000000000000e+00  1.9366315123041897e+00 -2.7840842790792936e-01 0.0000000000000000e+00  1.4810398968068672e+00 2.1781198248707176e-01 0.0000000000000000e+00  9.5978872145657179e-01 -7.8248141706856567e-01 0.0000000000000000e+00  1.1394017307115296e+00 2.4781743879178482e-02 0.0000000000000000e+00  1.4015986640115874e+00 -1.8813252672802497e-02 0.0000000000000000e+00  1.2575041569727323e+00 -1.1156767134966059e-02 0.0000000000000000e+00  1.2418313380250166e+00 2.5552416905640651e-02 0.0000000000000000e+00  2.4036998034863205e-01 5.0311220880754917e-02 0.0000000000000000e+00  -5.8399641350625538e-02 1.5184983129913263e-01 0.0000000000000000e+00  -5.5364921438526858e-02 1.3638761072409727e-01 0.0000000000000000e+00  1.5136399982153321e+00 -3.3157306711858348e-01 0.0000000000000000e+00  1.7264616021089598e+00 4.8848647646531684e-02 0.0000000000000000e+00  2.1651442975071142e-02 -6.0699609498187083e-02 0.0000000000000000e+00  1.5066155904397647e+00 -1.0303870945284905e+00 0.0000000000000000e+00  1.5647944852357691e+00 1.4499136518815894e-01 0.0000000000000000e+00  4.8468043772130820e-01 1.1885059981145069e-01 0.0000000000000000e+00  1.4992006674450622e+00 4.3450946238647786e-01 0.0000000000000000e+00  1.3069941825309712e+00 -6.1100186787694521e-02 0.0000000000000000e+00  1.2121574091052374e+00 7.4712953781582006e-02 0.0000000000000000e+00  1.1626537877757053e+00 9.1457344062348719e-02 0.0000000000000000e+00  1.1702925621429667e+00 -3.6427437108130380e-02 0.0000000000000000e+00  4.8144915562393503e-01 -2.1652936588047438e-02 0.0000000000000000e+00  1.7383371507113428e+00 -3.3000593204700507e-01 0.0000000000000000e+00  -6.5107362790611592e-02 -6.8945491885178734e-02 0.0000000000000000e+00  1.5217348181168473e+00 1.1302984204254738e+00 0.0000000000000000e+00  -4.4855326880250575e-02 4.9745883326682352e-02 0.0000000000000000e+00  1.8888688230907189e+00 7.7909450887046772e-01 0.0000000000000000e+00  8.4977171541119556e-01 9.4284000426961212e-01 0.0000000000000000e+00  4.3174905107793199e-01 2.2086939849713705e-01 0.0000000000000000e+00  1.3542957637637647e+00 -7.3007763061977635e-02 0.0000000000000000e+00  1.2620640702413202e+00 1.2134535573929829e-03 0.0000000000000000e+00  9.3744286652410058e-01 -1.0897066485696594e-01 0.0000000000000000e+00  1.3758063594858874e+00 2.5230108796012346e-01 0.0000000000000000e+00  -6.0284427823615441e-02 8.5453095356591333e-02 0.0000000000000000e+00  5.9081382417183859e-01 -6.0996743816015819e-01 0.0000000000000000e+00  9.5844716585616752e-01 3.2847137697665832e-04 0.0000000000000000e+00  1.9420737725761847e+00 -7.8866882783866710e-01 0.0000000000000000e+00  1.1691719766572004e+00 -2.7450170031566053e-05 0.0000000000000000e+00  2.7376787123729696e-01 3.3720492488732462e-02 0.0000000000000000e+00  -2.6159350100353690e-01 1.6034910683442913e-01 0.0000000000000000e+00  1.6111628719426505e+00 -3.4521753797859067e-01 0.0000000000000000e+00  1.1570592498003476e+00 -1.0731921495549850e+00 0.0000000000000000e+00  1.3191223089362445e+00 -1.3257702644265418e-01 0.0000000000000000e+00  8.8335024650348426e-01 -1.1004297134196087e-01 0.0000000000000000e+00  1.1451962844151957e+00 -5.6201448014274576e-02 0.0000000000000000e+00  7.5775697064305980e-01 -5.0455952351159093e-02 0.0000000000000000e+00  2.9436882031401275e-02 -4.8882544005466426e-02 0.0000000000000000e+00  1.4143662419248191e+00 6.8683291039960764e-02 0.0000000000000000e+00  1.8115106737724311e+00 -5.0720172847392164e-01 0.0000000000000000e+00  9.6121954818572464e-01 1.5523681867042680e-02 0.0000000000000000e+00  1.7687535285597236e+00 -9.9088062038840907e-01 0.0000000000000000e+00  1.0781474555161703e+00 1.9072283498600510e-02 0.0000000000000000e+00  1.5891075449524437e+00 1.1446413295865394e-01 0.0000000000000000e+00  5.4484105195955534e-01 -4.4122678748180336e-02 0.0000000000000000e+00  1.4145928058916424e+00 9.0569427861482060e-02 0.0000000000000000e+00  1.0376925821646537e+00 1.6571078942538625e-01 0.0000000000000000e+00  -1.3931446035469736e-01 1.9264975618316357e-01 0.0000000000000000e+00  1.0936800633221282e+00 -5.6696684618630475e-04 0.0000000000000000e+00  1.3676426076021169e+00 4.4562359121226519e-01 0.0000000000000000e+00  1.3028784720007749e+00 -6.2738350158699982e-02 0.0000000000000000e+00  1.2723104541526913e+00 1.7510849860819652e-01 0.0000000000000000e+00  1.2805366980292858e+00 8.4867775232768547e-02 0.0000000000000000e+00  1.3040636283754177e+00 1.1677971944441089e-01 0.0000000000000000e+00  1.8130744724442209e+00 3.8048857509675921e-01 0.0000000000000000e+00  1.0749796060065659e+00 1.6479275532261894e-01 0.0000000000000000e+00  2.0234940619771478e+00 -6.6270934688437977e-02 0.0000000000000000e+00  -4.3075853174667882e-02 1.3680404499982823e-01 0.0000000000000000e+00  1.2326434562534578e+00 -6.2217293306980170e-02 0.0000000000000000e+00  1.5869136147031222e+00 4.1545631502561403e-01 0.0000000000000000e+00  1.4253598615978782e+00 -6.3027593873761903e-02 0.0000000000000000e+00  1.5160569692102841e+00 -5.0350839879634801e-01 0.0000000000000000e+00  1.0278246835958613e+00 -1.7203670560376628e-02 0.0000000000000000e+00  1.6718879283678882e+00 -2.6075691271461726e-01 0.0000000000000000e+00  1.6582689520519502e+00 4.7817845154059713e-01 0.0000000000000000e+00  1.6548312231856537e+00 -2.4346523568340311e-02 0.0000000000000000e+00  1.2951564727696577e-02 1.7902281448921281e-01 0.0000000000000000e+00  1.2677021998146212e+00 -3.0928155552141207e-01 0.0000000000000000e+00  1.0787810975151233e+00 2.9086931174461650e-01 0.0000000000000000e+00  1.4653500092381775e+00 1.1386691117590289e-01 0.0000000000000000e+00  8.4623588633700864e-01 3.0832330871197609e-02 0.0000000000000000e+00  1.0540929649831463e+00 -7.2266593090861378e-02 0.0000000000000000e+00  8.5271294780501516e-01 2.2674511324625918e-02 0.0000000000000000e+00  1.3580243144287141e+00 -2.0222650712431200e-01 0.0000000000000000e+00  1.9094245470428346e+00 2.2582852267074696e-01 0.0000000000000000e+00  8.4785799130918049e-01 1.4294078483725564e-01 0.0000000000000000e+00  1.0577299214499565e+00 -2.3073294001539563e-01 0.0000000000000000e+00  9.4439866185845756e-01 -1.4873210643461748e-01 0.0000000000000000e+00  -3.2889466585425220e-01 2.9770294450605406e-01 0.0000000000000000e+00  -1.0205672508105426e-01 2.6635178333584525e-01 0.0000000000000000e+00  1.0092342116905391e+00 -8.5607726888444445e-04 0.0000000000000000e+00  9.6254606743132820e-01 4.2465983415278463e-04 0.0000000000000000e+00  4.7403611553126312e-01 -4.5294118021703239e-01 0.0000000000000000e+00  1.5359524126265771e+00 2.3282664179641085e-02 0.0000000000000000e+00  6.8787258823762909e-01 -6.0538507761069649e-01 0.0000000000000000e+00  8.9753428556474091e-01 4.6136665668664922e-02 0.0000000000000000e+00  1.1898293340556321e+00 -6.5476819856425228e-02 0.0000000000000000e+00  8.8789165343136855e-01 1.9312150761625878e-03 0.0000000000000000e+00  -3.7112742753331721e-02 1.3036684086400568e-01 0.0000000000000000e+00  8.8528258054288522e-01 -1.0364743345761646e-01 0.0000000000000000e+00  8.3418002303074190e-01 -3.9547157148595906e-02 0.0000000000000000e+00  1.1021171460622059e+00 1.1499783180943075e+00 0.0000000000000000e+00  1.6687238170667973e+00 9.6702281977492532e-01 0.0000000000000000e+00  4.5614417714801492e-01 6.7090444359167267e-01 0.0000000000000000e+00  3.0341980682886832e-01 -2.2910734704072683e-01 0.0000000000000000e+00  7.5568507306432076e-01 3.6152383989370737e-03 0.0000000000000000e+00  -4.2192762270125250e-02 5.3796355660043059e-02 0.0000000000000000e+00  1.3967951482058976e+00 3.7127049551941366e-01 0.0000000000000000e+00  -5.7498205170872348e-02 -7.5733712084079433e-02 0.0000000000000000e+00  -3.8620057678046535e-02 -2.5637391553206271e-02 0.0000000000000000e+00  1.2789403442269633e+00 -8.9074366355565530e-03 0.0000000000000000e+00  1.2243622951305524e+00 -8.0645434341197926e-04 0.0000000000000000e+00  7.3826301550179718e-01 -9.7257297047677516e-01 0.0000000000000000e+00  9.6104151088198830e-01 3.8622196233466306e-02 0.0000000000000000e+00  6.1140568216857905e-01 5.2631237427238686e-02 0.0000000000000000e+00  5.6792912644514693e-01 -4.2430858241941719e-03 0.0000000000000000e+00  6.2139880526402946e-01 2.8133469827088409e-02 0.0000000000000000e+00  1.3776195727900649e+00 -4.5971124899071175e-01 0.0000000000000000e+00  6.4229067854160393e-01 3.7995350836993586e-01 0.0000000000000000e+00  4.3871085235011259e-01 3.1435465454133095e-02 0.0000000000000000e+00  7.8335150932296427e-01 -8.8272929881649479e-03 0.0000000000000000e+00  -1.5983307847556608e-01 6.3118130749879445e-02 0.0000000000000000e+00  9.5998004116205382e-01 -3.6553073392728641e-03 0.0000000000000000e+00  1.5138584953912235e+00 5.9750791950781472e-02 0.0000000000000000e+00  7.5113458498899488e-01 -3.9063368175942498e-02 0.0000000000000000e+00  1.8111186995141562e+00 1.5315689705157090e-01 0.0000000000000000e+00  1.4588594394051337e+00 -1.1755725995910828e-02 0.0000000000000000e+00  1.5815039719585513e+00 5.9538375347765804e-01 0.0000000000000000e+00  1.2150169868765852e+00 -2.0142382319367749e-01 0.0000000000000000e+00  1.2755645178008719e+00 5.1709986107226616e-02 0.0000000000000000e+00  1.2881025966313095e+00 1.3948651993845601e-01 0.0000000000000000e+00  1.3453159206445964e+00 -1.6897617980952434e-02 0.0000000000000000e+00  1.2010955338877531e+00 5.4017490037935205e-02 0.0000000000000000e+00  1.2111507683266867e+00 9.1404653083772373e-03 0.0000000000000000e+00  1.1024211878073273e+00 8.2097727942900350e-02 0.0000000000000000e+00  1.1844958163176886e+00 -5.5656050979678254e-02 0.0000000000000000e+00  1.2296682911631658e+00 1.8142630264201604e-01 0.0000000000000000e+00  9.7635983432283602e-01 -1.0742718639341996e-01 0.0000000000000000e+00  1.3997805192018591e+00 -8.79806060325218