<?xml version="1.0"?>
<VTKFile type="UnstructuredGrid"  version="0.1"  >
<UnstructuredGrid>
<Piece  NumberOfPoints="3852" NumberOfCells="7360">
<Points>
<DataArray  type="Float64"  NumberOfComponents="3"  format="ascii">0 0 0  0 0.41 0  2.2 0.41 0  2.2 0 0  0.2 0.15 0  0.15 0.2 0  0.2 0.25 0  0.25 0.2 0  0.2097545161007899 0.1509607359798352 0  0.219134171618224 0.153806023374423 0  0.2277785116509268 0.1584265193848371 0  0.2353553390592504 0.1646446609405956 0  0.2415734806150793 0.1722214883489481 0  0.2461939766255306 0.1808658283816641 0  0.249039264020151 0.1902454838991403 0  0.2490392640201666 0.2097545161007811 0  0.2461939766255869 0.2191341716182 0  0.2415734806151802 0.2277785116509009 0  0.2353553390594108 0.235355339059244 0  0.2277785116510524 0.2415734806150789 0  0.2191341716182962 0.2461939766255471 0  0.209754516100834 0.2490392640201561 0  0.1902454838992189 0.2490392640201666 0  0.1808658283818 0.2461939766255869 0  0.1722214883490991 0.2415734806151802 0  0.164644660940756 0.2353553390594108 0  0.1584265193849211 0.2277785116510524 0  0.1538060233744529 0.2191341716182962 0  0.150960735979844 0.209754516100834 0  0.1509607359798352 0.1902454838992101 0  0.153806023374423 0.180865828381776 0  0.1584265193848371 0.1722214883490732 0  0.1646446609405956 0.1646446609407496 0  0.1722214883489481 0.1584265193849207 0  0.1808658283816641 0.1538060233744694 0  0.1902454838991403 0.150960735979849 0  0.09999999999980318 0 0  0.1999999999996354 0 0  0.2999999999994593 0 0  0.3999999999991452 0 0  0.4999999999988309 0 0  0.599999999998495 0 0  0.6999999999982023 0 0  0.7999999999979096 0 0  0.8999999999975735 0 0  0.9999999999972848 0 0  1.099999999997053 0 0  1.199999999997309 0 0  1.299999999997566 0 0  1.399999999997821 0 0  1.49999999999809 0 0  1.599999999998377 0 0  1.69999999999859 0 0  1.799999999998877 0 0  1.899999999999145 0 0  1.999999999999386 0 0  2.099999999999693 0 0  2.2 0.08199999999981657 0  2.2 0.1639999999995688 0  2.2 0.2459999999995603 0  2.2 0.327999999999785 0  2.100000000000048 0.41 0  2.000000000000269 0.41 0  1.900000000000422 0.41 0  1.800000000000679 0.41 0  1.700000000000931 0.41 0  1.600000000001326 0.41 0  1.500000000001665 0.41 0  1.400000000002032 0.41 0  1.300000000002395 0.41 0  1.200000000002644 0.41 0  1.100000000002865 0.41 0  1.000000000002617 0.41 0  0.900000000002368 0.41 0  0.8000000000021192 0.41 0  0.7000000000018587 0.41 0  0.6000000000015786 0.41 0  0.5000000000013736 0.41 0  0.4000000000010933 0.41 0  0.3000000000008329 0.41 0  0.2000000000005997 0.41 0  0.1000000000003003 0.41 0  0 0.3280000000001975 0  0 0.2460000000004372 0  0 0.1640000000004437 0  0 0.08200000000021695 0  0.439039350479032 0.2235433210862024 0  0.3557293424662716 0.1539377961885917 0  0.3450132387946972 0.2399891502764809 0  0.2900756359792848 0.08507884665974728 0  0.2884413411145515 0.3059878288466324 0  0.2102195502178943 0.3385267178242456 0  0.137328909169326 0.3152847369018352 0  0.08490385663776813 0.2628976192695439 0  0.08063302347471875 0.188368977740952 0  0.1005937615311739 0.1162460982751979 0  0.1621860847198582 0.08598327887900903 0  0.3012864586130264 0.1926027915888804 0  1.999140000000448 0.2049999999995642 0  0.2742354912953259 0.1572259708446958 0  0.2871471664627305 0.2264358039321654 0  0.6542851578645765 0.1981889790488746 0  0.2651366296338276 0.2534562504463119 0  0.2371819217149928 0.0977949043027586 0  1.651678197071202 0.2145186615851206 0  1.349674714201118 0.2086119645070391 0  0.9627539291831038 0.2056711800839285 0  0.2360880502985623 0.2733043913425156 0  1.159884231859056 0.2050429640239795 0  0.2502927927237266 0.1358797630898622 0  0.2080582834123368 0.2835355213895352 0  0.1805439632603489 0.278338480667804 0  0.1486243506827335 0.2626014098227327 0  0.1266658889266303 0.2392753516137401 0  0.1179814841582247 0.2069380844236527 0  0.1225167704961566 0.1764957192948648 0  0.1357996569043286 0.1472158045151807 0  0.1619764829264572 0.126298308975886 0  0.1935640279204225 0.116654032325456 0  1.82457000000085 0.2346439024393236 0  0.8027657238591595 0.149277802568535 0  1.498563450727992 0.2632867809910664 0  0.2770405925201826 0.1924926016722167 0  0.470924801584011 0.09138612536042019 0  0.550693598792917 0.2898604497866635 0  0.381089831438127 0.3238078833671811 0  2.074516462495042 0.125705772324225 0  2.083599037046577 0.2769549245607841 0  0.2692296340100125 0.2210592970306522 0  0.7614733075682367 0.2839235561638241 0  1.536698221979284 0.1258192462655419 0  1.231809489345021 0.1282542717942667 0  1.054759157670174 0.1242749934189342 0  1.754535566851005 0.1223197024158991 0  1.90452621597739 0.1324728094649104 0  0.2672409321155211 0.178737994598723 0  1.254401531996246 0.2902808614622134 0  1.04350934597445 0.2986664252663559 0  0.0749710792305778 0.3208721925318313 0  0.5425289614095572 0.165152457827861 0  0.1663208394680799 0.2644065126118989 0  0.1471335176887868 0.2433864007787126 0  0.1345556779484054 0.219852318055334 0  0.131940483167677 0.1932967226753857 0  0.1941574795820069 0.2685534232066453 0  0.2226696214021025 0.1252682734732412 0  0.2193882214552426 0.2661718674478616 0  0.1396865053227576 0.1677617654469802 0  0.8749487631478475 0.295170577255529 0  1.424301820545763 0.1157348858866879 0  1.918515045506933 0.2902236143624367 0  1.744876807925144 0.306628844405037 0  0.2443979144126529 0.254353837216211 0  0.2569054246570621 0.2306780201523878 0  0.2632507216716993 0.2062296523407826 0  0.4609453431326088 0.3138128990490959 0  0.3578015395476809 0.08253318517696946 0  0.2529777826635333 0.155582948480283 0  0.1580369715200277 0.1487041474358234 0  0.652872088668587 0.3101079993636056 0  0.297147332491062 0.2558065812325378 0  0.6188247313471635 0.1101603945467571 0  0.8951149554961688 0.1123812542864208 0  1.592749166085722 0.2985190085719691 0  1.40420309431358 0.2992155383468256 0  1.649189110727275 0.1000387439201274 0  0.2301663900864273 0.1432830242131801 0  0.2064839406544439 0.1345771465164309 0  0.2548204572493643 0.1702022465417566 0  0.1606700828011604 0.2481621709908606 0  0.2605987457303776 0.1928909671966518 0  0.1826942838524941 0.2594610608897559 0  0.1456438338561037 0.2290651013631561 0  0.1387681034994896 0.2058679665896095 0  1.140902260384949 0.3081952438204152 0  2.123402621966431 0.2039515281261525 0  0.7272188829630218 0.1047469619375249 0  0.2060868819369127 0.2616331638469837 0  0.246763614216289 0.2411610007697902 0  0.1405961691450822 0.1819800466423126 0  1.149638048863541 0.08264492713269313 0  0.1809997740285721 0.1365020267363126 0  1.993198408221569 0.09755938404998035 0  0.2287111352430851 0.2547015941619741 0  0.3818716699056283 0.2060398770290832 0  0.39147508084147 0.2656155699545688 0  0.151201080877373 0.1608659990301362 0  0.0542521118046473 0.1382221876243976 0  0.06190301158313444 0.0685934933767465 0  1.317316039400266 0.1015983144534349 0  0.2176417279723976 0.1415790407114221 0  0.2401571300978209 0.1529210337009423 0  0.2618092962776011 0.3566662607419938 0  0.1941527094396574 0.1377969918002053 0  0.9590486261329707 0.3255353063371385 0  0.1708201090411339 0.1447474051814825 0  1.837592370686806 0.3302992722413595 0  0.3197015570210796 0.1212159119695666 0  0.4155281956943757 0.1409543952531078 0  0.0549491513262805 0.2307535706287103 0  0.1668210562270142 0.3605647861782867 0  0.2854688902460447 0.2093700809023571 0  2.013251581901814 0.3292746985146142 0  0.1192191106244758 0.2809901915857802 0  0.2487958366614321 0.04556523514103697 0  0.09061021186838321 0.2240174335271237 0  1.737143840576958 0.20912817770623 0  0.04515017012776967 0.2784708690411318 0  0.5347554646753627 0.08988970780599832 0  0.977104673723579 0.08241628541188413 0  0.336509991617897 0.2888965225844298 0  0.2569238041969055 0.2173711314485607 0  1.906541186051535 0.2125389476829634 0  0.1762338839607841 0.3102437166134606 0  1.449268841077636 0.201011295143529 0  0.8555371485878378 0.2099663446585434 0  1.837208236203613 0.07556229833764837 0  1.264402545318887 0.1992523923163096 0  1.068181074047183 0.2155119107017876 0  0.3158931250274742 0.3421721218291775 0  0.2731958384900449 0.2373435058667565 0  0.09875906484220501 0.1533097574901186 0  0.7355755433976705 0.2066339904079041 0  1.567440499207928 0.2049999999995983 0  1.329829828222916 0.3295825481537897 0  0.8214190147401245 0.07894167681990104 0  1.525459989258997 0.3394220200696043 0  0.1990897327079506 0.06300531675246424 0  0.244701762210989 0.3062404318132603 0  0.1033853772622983 0.3551443431224104 0  0.1178236825374896 0.07148041782551597 0  0.1558198999929474 0.04409380269139784 0  0.3389178979413869 0.198678920661321 0  0.310790717645908 0.2196004930752872 0  2.125022007676643 0.3402049371791425 0  2.130028889485561 0.06535501282233655 0  0.4821161335597635 0.1626909543876269 0  0.2838678108956019 0.1254276466262967 0  0.5062815929260498 0.2376271077316994 0  1.663059277092996 0.3422301118688678 0  1.82292665764828 0.1574809263836269 0  2.052538557905295 0.05717536030732174 0  0.3078251537889645 0.16056368457456 0  0.8108267070172145 0.3390047366820738 0  1.487254632568403 0.0703866281621833 0  0.155004430757041 0.2369517702015699 0  0.1725545045705267 0.2519594403466565 0  0.1445581653510352 0.2167994984574706 0  0.1420710285613199 0.1942747855116325 0  1.461861739291679 0.3471998553985149 0  0.2372128969196007 0.2453440460936858 0  0.1943665918892754 0.2580518465884657 0  0.2452139232912363 0.1629124725160763 0  0.2555786751481889 0.1825885041235872 0  2.14640473333793 0.2790222779730848 0  2.145589594789407 0.1282024626544199 0  0.1486651579751984 0.1726583296292201 0  0.550000000001476 0.3603327897285098 0  0.0505668771231032 0.3660023622363767 0  1.049999999997169 0.05217028468202135 0  1.244771793631775 0.05744029386223062 0  0.1356759337238615 0.1094447816941579 0  0.5872326411628903 0.2223148728195226 0  0.2168458206248643 0.2558159203714847 0  1.749999999998732 0.05166028789524129 0  0.2855257256666041 0.1763246086558152 0  1.92
[...]
<PointData  Vectors="f_22"> 
<DataArray  type="Float64"  Name="f_22"  NumberOfComponents="3" format="ascii">0.0000000000000000e+00 0.0000000000000000e+00 0.0000000000000000e+00  0.0000000000000000e+00 0.0000000000000000e+00 0.0000000000000000e+00  0.0000000000000000e+00 0.0000000000000000e+00 0.0000000000000000e+00  0.0000000000000000e+00 0.0000000000000000e+00 0.0000000000000000e+00  0.0000000000000000e+00 0.0000000000000000e+00 0.0000000000000000e+00  0.0000000000000000e+00 0.0000000000000000e+00 0.0000000000000000e+00  0.0000000000000000e+00 0.0000000000000000e+00 0.0000000000000000e+00  0.0000000000000000e+00 0.0000000000000000e+00 0.0000000000000000e+00  0.0000000000000000e+00 0.0000000000000000e+00 0.0000000000000000e+00  0.0000000000000000e+00 0.0000000000000000e+00 0.0000000000000000e+00  0.0000000000000000e+00 0.0000000000000000e+00 0.0000000000000000e+00  0.0000000000000000e+00 0.0000000000000000e+00 0.0000000000000000e+00  0.0000000000000000e+00 0.0000000000000000e+00 0.0000000000000000e+00  0.0000000000000000e+00 0.0000000000000000e+00 0.0000000000000000e+00  0.0000000000000000e+00 0.0000000000000000e+00 0.0000000000000000e+00  0.0000000000000000e+00 0.0000000000000000e+00 0.0000000000000000e+00  0.0000000000000000e+00 0.0000000000000000e+00 0.0000000000000000e+00  0.0000000000000000e+00 0.0000000000000000e+00 0.0000000000000000e+00  0.0000000000000000e+00 0.0000000000000000e+00 0.0000000000000000e+00  0.0000000000000000e+00 0.0000000000000000e+00 0.0000000000000000e+00  0.0000000000000000e+00 0.0000000000000000e+00 0.0000000000000000e+00  0.0000000000000000e+00 0.0000000000000000e+00 0.0000000000000000e+00  0.0000000000000000e+00 0.0000000000000000e+00 0.0000000000000000e+00  0.0000000000000000e+00 0.0000000000000000e+00 0.0000000000000000e+00  0.0000000000000000e+00 0.0000000000000000e+00 0.0000000000000000e+00  0.0000000000000000e+00 0.0000000000000000e+00 0.0000000000000000e+00  0.0000000000000000e+00 0.0000000000000000e+00 0.0000000000000000e+00  0.0000000000000000e+00 0.0000000000000000e+00 0.0000000000000000e+00  0.0000000000000000e+00 0.0000000000000000e+00 0.0000000000000000e+00  0.0000000000000000e+00 0.0000000000000000e+00 0.0000000000000000e+00  0.0000000000000000e+00 0.0000000000000000e+00 0.0000000000000000e+00  0.0000000000000000e+00 0.0000000000000000e+00 0.0000000000000000e+00  0.0000000000000000e+00 0.0000000000000000e+00 0.0000000000000000e+00  0.0000000000000000e+00 0.0000000000000000e+00 0.0000000000000000e+00  0.0000000000000000e+00 0.0000000000000000e+00 0.0000000000000000e+00  0.0000000000000000e+00 0.0000000000000000e+00 0.0000000000000000e+00  0.0000000000000000e+00 0.0000000000000000e+00 0.0000000000000000e+00  0.0000000000000000e+00 0.0000000000000000e+00 0.0000000000000000e+00  0.0000000000000000e+00 0.0000000000000000e+00 0.0000000000000000e+00  0.0000000000000000e+00 0.0000000000000000e+00 0.0000000000000000e+00  0.0000000000000000e+00 0.0000000000000000e+00 0.0000000000000000e+00  0.0000000000000000e+00 0.0000000000000000e+00 0.0000000000000000e+00  0.0000000000000000e+00 0.0000000000000000e+00 0.0000000000000000e+00  0.0000000000000000e+00 0.0000000000000000e+00 0.0000000000000000e+00  0.0000000000000000e+00 0.0000000000000000e+00 0.0000000000000000e+00  0.0000000000000000e+00 0.0000000000000000e+00 0.0000000000000000e+00  0.0000000000000000e+00 0.0000000000000000e+00 0.0000000000000000e+00  0.0000000000000000e+00 0.0000000000000000e+00 0.0000000000000000e+00  0.0000000000000000e+00 0.0000000000000000e+00 0.0000000000000000e+00  0.0000000000000000e+00 0.0000000000000000e+00 0.0000000000000000e+00  0.0000000000000000e+00 0.0000000000000000e+00 0.0000000000000000e+00  0.0000000000000000e+00 0.0000000000000000e+00 0.0000000000000000e+00  0.0000000000000000e+00 0.0000000000000000e+00 0.0000000000000000e+00  0.0000000000000000e+00 0.0000000000000000e+00 0.0000000000000000e+00  0.0000000000000000e+00 0.0000000000000000e+00 0.0000000000000000e+00  0.0000000000000000e+00 0.0000000000000000e+00 0.0000000000000000e+00  0.0000000000000000e+00 0.0000000000000000e+00 0.0000000000000000e+00  1.0454622954215507e+00 3.1515637620707542e-03 0.0000000000000000e+00  1.4362625986946380e+00 4.5135485668202177e-02 0.0000000000000000e+00  1.2925234571786708e+00 1.7865109710513177e-02 0.0000000000000000e+00  9.7669062309196664e-01 3.6728163014932973e-02 0.0000000000000000e+00  0.0000000000000000e+00 0.0000000000000000e+00 0.0000000000000000e+00  0.0000000000000000e+00 0.0000000000000000e+00 0.0000000000000000e+00  0.0000000000000000e+00 0.0000000000000000e+00 0.0000000000000000e+00  0.0000000000000000e+00 0.0000000000000000e+00 0.0000000000000000e+00  0.0000000000000000e+00 0.0000000000000000e+00 0.0000000000000000e+00  0.0000000000000000e+00 0.0000000000000000e+00 0.0000000000000000e+00  0.0000000000000000e+00 0.0000000000000000e+00 0.0000000000000000e+00  0.0000000000000000e+00 0.0000000000000000e+00 0.0000000000000000e+00  0.0000000000000000e+00 0.0000000000000000e+00 0.0000000000000000e+00  0.0000000000000000e+00 0.0000000000000000e+00 0.0000000000000000e+00  0.0000000000000000e+00 0.0000000000000000e+00 0.0000000000000000e+00  0.0000000000000000e+00 0.0000000000000000e+00 0.0000000000000000e+00  0.0000000000000000e+00 0.0000000000000000e+00 0.0000000000000000e+00  0.0000000000000000e+00 0.0000000000000000e+00 0.0000000000000000e+00  0.0000000000000000e+00 0.0000000000000000e+00 0.0000000000000000e+00  0.0000000000000000e+00 0.0000000000000000e+00 0.0000000000000000e+00  0.0000000000000000e+00 0.0000000000000000e+00 0.0000000000000000e+00  0.0000000000000000e+00 0.0000000000000000e+00 0.0000000000000000e+00  0.0000000000000000e+00 0.0000000000000000e+00 0.0000000000000000e+00  0.0000000000000000e+00 0.0000000000000000e+00 0.0000000000000000e+00  0.0000000000000000e+00 0.0000000000000000e+00 0.0000000000000000e+00  9.6000004895756563e-01 0.0000000000000000e+00 0.0000000000000000e+00  1.4400000734376706e+00 0.0000000000000000e+00 0.0000000000000000e+00  1.4400000734402489e+00 0.0000000000000000e+00 0.0000000000000000e+00  9.6000004896120494e-01 0.0000000000000000e+00 0.0000000000000000e+00  4.3216012234742258e-02 3.4480577467363543e-01 0.0000000000000000e+00  8.3213499405532843e-01 -1.7721320424975096e-01 0.0000000000000000e+00  1.1328589158683702e-01 -5.1762049018798617e-01 0.0000000000000000e+00  1.8476588839108836e+00 -3.3316305204331369e-02 0.0000000000000000e+00  1.8811774042316509e+00 -6.1530959407529132e-02 0.0000000000000000e+00  1.4415060570891978e+00 1.6696992875071731e-01 0.0000000000000000e+00  1.3219967707242231e+00 3.3875220844837933e-01 0.0000000000000000e+00  1.3366497518533065e+00 2.6508513182768462e-01 0.0000000000000000e+00  1.3067924648591134e+00 -6.1879392666426954e-02 0.0000000000000000e+00  1.2608548874192453e+00 -3.1705025953738986e-01 0.0000000000000000e+00  1.4032441074087629e+00 -3.7345382775778674e-01 0.0000000000000000e+00  -2.5505578116684241e-01 -2.6711617680471050e-01 0.0000000000000000e+00  1.6346785978784630e+00 -1.4743553635189799e-01 0.0000000000000000e+00  5.5354882194062462e-02 -1.2565835409998991e-01 0.0000000000000000e+00  -1.3793884224125064e-01 -6.4138948028014493e-03 0.0000000000000000e+00  1.4290989115773109e+00 -8.2817006071333965e-01 0.0000000000000000e+00  4.7175620336288338e-01 3.0119497743443399e-02 0.0000000000000000e+00  1.8851028482715222e+00 -2.2890305980024853e-01 0.0000000000000000e+00  1.5712960182154136e+00 2.6941896179884389e-01 0.0000000000000000e+00  1.4563474966682721e+00 1.5110771094306727e-01 0.0000000000000000e+00  1.6825125811543826e+00 6.7920974074437576e-02 0.0000000000000000e+00  1.8831972158330228e+00 1.3905679288833020e-01 0.0000000000000000e+00  1.5238359563823174e+00 9.6853661018435639e-03 0.0000000000000000e+00  9.1749658893935249e-01 -5.5803758847864642e-02 0.0000000000000000e+00  2.0351705149609773e+00 3.7843804405946568e-01 0.0000000000000000e+00  1.8977649437525670e+00 6.1455732802952834e-01 0.0000000000000000e+00  1.5127006656686073e+00 7.7121294329528089e-01 0.0000000000000000e+00  1.1560345660192055e+00 5.6608235872199930e-01 0.0000000000000000e+00  9.4228807418068983e-01 1.1255627730642027e-01 0.0000000000000000e+00  9.8455190003767368e-01 -3.9256050634473766e-01 0.0000000000000000e+00  1.2893553293173243e+00 -6.9714017464098943e-01 0.0000000000000000e+00  1.6481706118735171e+00 -7.1924406497084625e-01 0.0000000000000000e+00  1.9087897388921693e+00 -5.2984849443261950e-01 0.0000000000000000e+00  1.6269705204439733e+00 3.6554533730329498e-02 0.0000000000000000e+00  1.8613564657630284e+00 7.0606361519599981e-01 0.0000000000000000e+00  1.2552731993272961e+00 -1.7568198574514093e-01 0.0000000000000000e+00  -1.4616366446672252e-01 -1.2621071621411628e-01 0.0000000000000000e+00  1.3605367541124662e+00 3.8948122454755180e-01 0.0000000000000000e+00  1.9907080751131072e+00 -3.6847710080999552e-01 0.0000000000000000e+00  1.5155844059056012e+00 -9.4270260166349304e-02 0.0000000000000000e+00  1.3621687410416101e+00 -1.4347924075130430e-01 0.0000000000000000e+00  1.0964393381220450e+00 8.9985594415317949e-02 0.0000000000000000e+00  -1.1616676110411957e-01 8.6170146918237975e-02 0.0000000000000000e+00  7.3368468103767315e-01 -1.7014644400544687e-01 0.0000000000000000e+00  1.4116924065419629e+00 -2.5315904178468412e-01 0.0000000000000000e+00  1.3280179803605734e+00 2.5653211304143708e-01 0.0000000000000000e+00  1.0081553319311749e+00 -7.1979571448417579e-01 0.0000000000000000e+00  1.1469371008969362e+00 6.5424240218145552e-02 0.0000000000000000e+00  1.2546653313964014e+00 -8.3410091929563931e-02 0.0000000000000000e+00  -6.6877566616402706e-02 -1.4395732326405364e-01 0.0000000000000000e+00  1.1087292583921731e+00 6.1170414928994832e-01 0.0000000000000000e+00  1.1540022707321909e+00 -1.5627043636623628e-01 0.0000000000000000e+00  1.0810100115434054e+00 1.7240799925621597e-01 0.0000000000000000e+00  8.2689310616028899e-01 5.0685317595230450e-01 0.0000000000000000e+00  1.7749368750782741e+00 8.4923428123829781e-01 0.0000000000000000e+00  1.2498802238079503e+00 9.4955836332772547e-01 0.0000000000000000e+00  7.6542855942473320e-01 5.1959921757458938e-01 0.0000000000000000e+00  6.4641568165183128e-01 -1.9075507196789512e-01 0.0000000000000000e+00  2.0801764398093940e+00 5.6618643083833153e-01 0.0000000000000000e+00  1.9272034310953619e+00 -3.0211617044014238e-01 0.0000000000000000e+00  1.6524323258653295e+00 1.7308466617701954e-01 0.0000000000000000e+00  9.6437982987321114e-01 -7.9635487315957121e-01 0.0000000000000000e+00  1.2213164674424788e+00 3.6410117312578516e-01 0.0000000000000000e+00  1.0206131602475024e+00 -3.4177540573978837e-01 0.0000000000000000e+00  1.2645839907675755e+00 -1.4795550304154351e-01 0.0000000000000000e+00  1.1566562569704553e+00 2.3453655469234641e-01 0.0000000000000000e+00  4.0584661671163663e-01 2.6606119715074567e-02 0.0000000000000000e+00  -6.6110344822487871e-02 1.5245500569757786e-01 0.0000000000000000e+00  -8.0468430901109431e-02 3.5870648181855112e-02 0.0000000000000000e+00  1.6532212239536301e+00 5.1517801668476089e-02 0.0000000000000000e+00  1.8312278104311528e+00 1.9769993714035200e-01 0.0000000000000000e+00  -2.3136294220511604e-02 -6.0423286682921649e-02 0.0000000000000000e+00  1.5110179327381505e+00 -1.0435536532436909e+00 0.0000000000000000e+00  1.2048193879904521e+00 -2.1194886295294582e-01 0.0000000000000000e+00  7.6933333073024457e-01 -1.3758536652096337e-01 0.0000000000000000e+00  7.0239943955109474e-01 -2.0726079534376729e-01 0.0000000000000000e+00  8.9189962928225530e-01 2.8718026237634631e-01 0.0000000000000000e+00  1.0419859271618102e+00 -9.9001758834825107e-02 0.0000000000000000e+00  1.3636000327427904e+00 -2.4718028510765688e-01 0.0000000000000000e+00  1.1673184771928589e+00 1.8979983129164738e-01 0.0000000000000000e+00  4.2563287691053936e-01 -3.7338263557288275e-02 0.0000000000000000e+00  1.7075668227345793e+00 -3.4405499701888337e-01 0.0000000000000000e+00  -5.1950744733308518e-02 -8.3525876989027442e-02 0.0000000000000000e+00  1.5370092820851129e+00 1.1222274637590510e+00 0.0000000000000000e+00  -4.6514969663405646e-02 -3.9213393001031639e-02 0.0000000000000000e+00  1.9484833572314486e+00 7.6810684151055075e-01 0.0000000000000000e+00  8.5085576683620745e-01 9.3156198209678964e-01 0.0000000000000000e+00  4.3200136763463542e-01 2.0534561226537024e-01 0.0000000000000000e+00  7.6288595774471990e-01 -2.7074576676713913e-01 0.0000000000000000e+00  1.4052797373054011e+00 1.0771527011996340e-01 0.0000000000000000e+00  1.5371248447861485e+00 3.4627290221501461e-02 0.0000000000000000e+00  1.5268534551048749e+00 2.3339786188202574e-01 0.0000000000000000e+00  -2.3951150284626778e-02 1.0746976407988613e-01 0.0000000000000000e+00  5.9478776997046179e-01 -6.2606681007689446e-01 0.0000000000000000e+00  1.2432028597791036e+00 1.0703288914187607e-01 0.0000000000000000e+00  1.9398145042705124e+00 -8.0293673321224157e-01 0.0000000000000000e+00  1.0309909531161943e+00 -1.0637086605943805e-01 0.0000000000000000e+00  4.0668559473142779e-01 5.0644498766274316e-03 0.0000000000000000e+00  -2.9134927524264359e-01 -5.0222993517093262e-01 0.0000000000000000e+00  9.0246249544210067e-01 -2.9211510384188744e-01 0.0000000000000000e+00  1.1627129804101468e+00 -1.0869568119343938e+00 0.0000000000000000e+00  1.3185864740823756e+00 -1.2561480228139274e-01 0.0000000000000000e+00  8.8105202064653820e-01 -1.0568814216964689e-01 0.0000000000000000e+00  9.2051597914645933e-01 2.5739002366608549e-01 0.0000000000000000e+00  7.0223020056650198e-01 -6.2262224713449520e-02 0.0000000000000000e+00  -8.1790562731882399e-03 -4.5359073317481069e-02 0.0000000000000000e+00  1.3232392219875764e+00 1.7204560665562491e-02 0.0000000000000000e+00  1.7885276832241410e+00 -5.1656446316991622e-01 0.0000000000000000e+00  1.3065918619357533e+00 -1.3103883214474854e-01 0.0000000000000000e+00  1.7684711690273167e+00 -1.0017272918323770e+00 0.0000000000000000e+00  1.0631932745186443e+00 -3.9440829040168587e-02 0.0000000000000000e+00  1.7474222055789728e+00 1.4299476852561992e-02 0.0000000000000000e+00  1.8290671485017722e+00 6.6962922356601118e-01 0.0000000000000000e+00  1.4156376057077542e+00 9.6464467804731432e-02 0.0000000000000000e+00  1.0224138527115527e+00 1.4392320325739896e-01 0.0000000000000000e+00  -2.2598454697221729e-01 -7.1312636759155237e-02 0.0000000000000000e+00  8.7488843351893153e-01 1.5050851019487131e-02 0.0000000000000000e+00  1.3726419283245559e+00 4.3357727279752284e-01 0.0000000000000000e+00  1.3202661295102596e+00 -6.4753996325099872e-02 0.0000000000000000e+00  1.2742315429676521e+00 1.7458507081791383e-01 0.0000000000000000e+00  1.6426124787946974e+00 2.9841420197222007e-01 0.0000000000000000e+00  1.3051523404281882e+00 1.2146036407550542e-01 0.0000000000000000e+00  1.0388017906628630e+00 5.0255139364462048e-02 0.0000000000000000e+00  4.9876830754933404e-01 -4.7548685632227701e-02 0.0000000000000000e+00  1.7965583511008019e+00 -2.7085615552504744e-01 0.0000000000000000e+00  -6.7038049105841130e-02 1.2871294026501665e-01 0.0000000000000000e+00  1.6026525259526305e+00 -3.4603481417794268e-01 0.0000000000000000e+00  1.5877011074083054e+00 3.7364925144011424e-01 0.0000000000000000e+00  1.6008056502374337e+00 -4.9955651311384225e-01 0.0000000000000000e+00  1.5420566052985549e+00 8.5656350360122269e-01 0.0000000000000000e+00  7.8478296573281203e-01 -1.1014362465673923e-02 0.0000000000000000e+00  1.5363870842916425e+00 5.1765304547577662e-01 0.0000000000000000e+00  1.4941836460374585e+00 -6.6068703334377021e-01 0.0000000000000000e+00  1.4791745956650995e+00 -7.4364592796081389e-02 0.0000000000000000e+00  2.5377549668902277e-02 8.3783693848725554e-02 0.0000000000000000e+00  1.2681224452788451e+00 -3.1007489892951456e-01 0.0000000000000000e+00  1.3845439316021118e+00 -4.3419015853475329e-01 0.0000000000000000e+00  1.3026707211255861e+00 -6.1171131797014888e-02 0.0000000000000000e+00  1.2852904310343951e+00 -5.1425383642371744e-02 0.0000000000000000e+00  9.4919390602512865e-01 6.0327428274725092e-02 0.0000000000000000e+00  7.7584718718119405e-01 -7.0431018446769925e-02 0.0000000000000000e+00  1.3635525095420162e+00 -2.1286787898506440e-01 0.0000000000000000e+00  1.8803476500320535e+00 1.2120852871625309e-01 0.0000000000000000e+00  8.4835220419473678e-01 1.3620017457044278e-01 0.0000000000000000e+00  1.0541861371349659e+00 -2.3360370208445230e-01 0.0000000000000000e+00  9.4298215290455178e-01 -1.5397849799669167e-01 0.0000000000000000e+00  -3.7773175533535913e-01 -5.5791626118878024e-01 0.0000000000000000e+00  -2.9559818802722504e-01 -2.3966096919168628e-01 0.0000000000000000e+00  8.5962952700029172e-01 3.5348298222705112e-02 0.0000000000000000e+00  9.1595773705241379e-01 -5.2162671070744423e-03 0.0000000000000000e+00  1.3029866743968572e+00 8.6533196251032041e-01 0.0000000000000000e+00  1.5191720988549848e+00 -4.8988700707493629e-02 0.0000000000000000e+00  5.8410200786088617e-01 7.5194870484398968e-01 0.0000000000000000e+00  6.2335594166204999e-01 3.1753583078656916e-02 0.0000000000000000e+00  1.2053954152261410e+00 -8.0671348072972114e-04 0.0000000000000000e+00  7.9040905714753373e-01 -4.3794454559385299e-02 0.0000000000000000e+00  2.0786608402806034e-01 -2.5295449188358865e-01 0.0000000000000000e+00  7.5008662149809113e-01 1.2227432438254889e-01 0.0000000000000000e+00  8.6893470605263057e-01 -2.3866114858054921e-01 0.0000000000000000e+00  1.1092226212874210e+00 1.1462453159691302e+00 0.0000000000000000e+00  1.7095556025404182e+00 9.6978778154371370e-01 0.0000000000000000e+00  4.5526388050066907e-01 6.5860565730505771e-01 0.0000000000000000e+00  3.0528336271866235e-01 -2.4521601026407958e-01 0.0000000000000000e+00  7.9132108845815285e-01 -8.4464674223709860e-02 0.0000000000000000e+00  4.2655362588660760e-04 5.1403417284810890e-02 0.0000000000000000e+00  1.5126196735645563e+00 3.7217208942189817e-01 0.0000000000000000e+00  -5.9733417887026782e-02 -5.1161620541689060e-02 0.0000000000000000e+00  -2.7084734919940678e-02 -5.2708785074844881e-02 0.0000000000000000e+00  1.1695047526325442e+00 6.4125099708776848e-02 0.0000000000000000e+00  1.4090002598208977e+00 5.5582158252341599e-02 0.0000000000000000e+00  7.4351497464496896e-01 -9.8651994911449137e-01 0.0000000000000000e+00  9.8323174281173731e-01 -1.3092265661633004e-01 0.0000000000000000e+00  6.1281077356694014e-01 5.4008937464399859e-02 0.0000000000000000e+00  8.0736524750634120e-01 -1.1206263571783552e-01 0.0000000000000000e+00  7.6936453490325507e-01 8.1551785514298064e-02 0.0000000000000000e+00  1.3772806430540188e+00 -4.6749760633524112e-01 0.0000000000000000e+00  1.4866396830176067e+00 -5.0039459715946621e-01 0.0000000000000000e+00  5.7215286167285850e-01 1.0991190701682755e-02 0.0000000000000000e+00  5.4864711068908201e-01 2.5007254004873372e-02 0.0000000000000000e+00  -7.9253718142196394e-02 -2.1211049695917530e-01 0.0000000000000000e+00  7.1753467729343179e-01 -3.4911595037524938e-02 0.0000000000000000e+00  1.2392289129499368e+00 2.5851631822210730e-01 0.0000000000000000e+00  9.3002589597365426e-01 3.0793762881095196e-02 0.0000000000000000e+00  1.9519103222657526e+00 2.2443734480206739e-02 0.0000000000000000e+00  1.4590466499840773e+00 -4.7021430649066276e-03 0.0000000000000000e+00  1.5910691714179190e+00 5.6827241406223705e-01 0.0000000000000000e+00  7.4796161154003848e-01 8.2214944496932438e-02 0.0000000000000000e+00  1.4504981220254511e+00 2.4966696593310800e-01 0.0000000000000000e+00  1.6790394855149513e+00 3.3974812122079689e-01 0.0000000000000000e+00  1.5828941504622098e+00 3.5444915811264738e-01 0.0000000000000000e+00  1.3718944105104622e+00 1.5975549640607051e-01 0.0000000000000000e+00  1.1480632068367203e+00 1.3194514945500746e-01 0.0000000000000000e+00  1.3274712541574452e+00 2.0736054971561943e-01 0.0000000000000000e+00  1.5321345247943434e+00 1.3708650737212624e-01 0.0000000000000000e+00  1.5834298660161010e+00 3.2177485234251840e-01 0.0000000000000000e+00  1.3271056998701574e+00 -1.4398702034202940e-01 0.0000000000000000e+00  1.4088963902349700e+00 -3.11480660