<?xml version="1.0"?>
<VTKFile type="UnstructuredGrid"  version="0.1"  >
<UnstructuredGrid>
<Piece  NumberOfPoints="3852" NumberOfCells="7360">
<Points>
<DataArray  type="Float64"  NumberOfComponents="3"  format="ascii">0 0 0  0 0.41 0  2.2 0.41 0  2.2 0 0  0.2 0.15 0  0.15 0.2 0  0.2 0.25 0  0.25 0.2 0  0.2097545161007899 0.1509607359798352 0  0.219134171618224 0.153806023374423 0  0.2277785116509268 0.1584265193848371 0  0.2353553390592504 0.1646446609405956 0  0.2415734806150793 0.1722214883489481 0  0.2461939766255306 0.1808658283816641 0  0.249039264020151 0.1902454838991403 0  0.2490392640201666 0.2097545161007811 0  0.2461939766255869 0.2191341716182 0  0.2415734806151802 0.2277785116509009 0  0.2353553390594108 0.235355339059244 0  0.2277785116510524 0.2415734806150789 0  0.2191341716182962 0.2461939766255471 0  0.209754516100834 0.2490392640201561 0  0.1902454838992189 0.2490392640201666 0  0.1808658283818 0.2461939766255869 0  0.1722214883490991 0.2415734806151802 0  0.164644660940756 0.2353553390594108 0  0.1584265193849211 0.2277785116510524 0  0.1538060233744529 0.2191341716182962 0  0.150960735979844 0.209754516100834 0  0.1509607359798352 0.1902454838992101 0  0.153806023374423 0.180865828381776 0  0.1584265193848371 0.1722214883490732 0  0.1646446609405956 0.1646446609407496 0  0.1722214883489481 0.1584265193849207 0  0.1808658283816641 0.1538060233744694 0  0.1902454838991403 0.150960735979849 0  0.09999999999980318 0 0  0.1999999999996354 0 0  0.2999999999994593 0 0  0.3999999999991452 0 0  0.4999999999988309 0 0  0.599999999998495 0 0  0.6999999999982023 0 0  0.7999999999979096 0 0  0.8999999999975735 0 0  0.9999999999972848 0 0  1.099999999997053 0 0  1.199999999997309 0 0  1.299999999997566 0 0  1.399999999997821 0 0  1.49999999999809 0 0  1.599999999998377 0 0  1.69999999999859 0 0  1.799999999998877 0 0  1.899999999999145 0 0  1.999999999999386 0 0  2.099999999999693 0 0  2.2 0.08199999999981657 0  2.2 0.1639999999995688 0  2.2 0.2459999999995603 0  2.2 0.327999999999785 0  2.100000000000048 0.41 0  2.000000000000269 0.41 0  1.900000000000422 0.41 0  1.800000000000679 0.41 0  1.700000000000931 0.41 0  1.600000000001326 0.41 0  1.500000000001665 0.41 0  1.400000000002032 0.41 0  1.300000000002395 0.41 0  1.200000000002644 0.41 0  1.100000000002865 0.41 0  1.000000000002617 0.41 0  0.900000000002368 0.41 0  0.8000000000021192 0.41 0  0.7000000000018587 0.41 0  0.6000000000015786 0.41 0  0.5000000000013736 0.41 0  0.4000000000010933 0.41 0  0.3000000000008329 0.41 0  0.2000000000005997 0.41 0  0.1000000000003003 0.41 0  0 0.3280000000001975 0  0 0.2460000000004372 0  0 0.1640000000004437 0  0 0.08200000000021695 0  0.439039350479032 0.2235433210862024 0  0.3557293424662716 0.1539377961885917 0  0.3450132387946972 0.2399891502764809 0  0.2900756359792848 0.08507884665974728 0  0.2884413411145515 0.3059878288466324 0  0.2102195502178943 0.3385267178242456 0  0.137328909169326 0.3152847369018352 0  0.08490385663776813 0.2628976192695439 0  0.08063302347471875 0.188368977740952 0  0.1005937615311739 0.1162460982751979 0  0.1621860847198582 0.08598327887900903 0  0.3012864586130264 0.1926027915888804 0  1.999140000000448 0.2049999999995642 0  0.2742354912953259 0.1572259708446958 0  0.2871471664627305 0.2264358039321654 0  0.6542851578645765 0.1981889790488746 0  0.2651366296338276 0.2534562504463119 0  0.2371819217149928 0.0977949043027586 0  1.651678197071202 0.2145186615851206 0  1.349674714201118 0.2086119645070391 0  0.9627539291831038 0.2056711800839285 0  0.2360880502985623 0.2733043913425156 0  1.159884231859056 0.2050429640239795 0  0.2502927927237266 0.1358797630898622 0  0.2080582834123368 0.2835355213895352 0  0.1805439632603489 0.278338480667804 0  0.1486243506827335 0.2626014098227327 0  0.1266658889266303 0.2392753516137401 0  0.1179814841582247 0.2069380844236527 0  0.1225167704961566 0.1764957192948648 0  0.1357996569043286 0.1472158045151807 0  0.1619764829264572 0.126298308975886 0  0.1935640279204225 0.116654032325456 0  1.82457000000085 0.2346439024393236 0  0.8027657238591595 0.149277802568535 0  1.498563450727992 0.2632867809910664 0  0.2770405925201826 0.1924926016722167 0  0.470924801584011 0.09138612536042019 0  0.550693598792917 0.2898604497866635 0  0.381089831438127 0.3238078833671811 0  2.074516462495042 0.125705772324225 0  2.083599037046577 0.2769549245607841 0  0.2692296340100125 0.2210592970306522 0  0.7614733075682367 0.2839235561638241 0  1.536698221979284 0.1258192462655419 0  1.231809489345021 0.1282542717942667 0  1.054759157670174 0.1242749934189342 0  1.754535566851005 0.1223197024158991 0  1.90452621597739 0.1324728094649104 0  0.2672409321155211 0.178737994598723 0  1.254401531996246 0.2902808614622134 0  1.04350934597445 0.2986664252663559 0  0.0749710792305778 0.3208721925318313 0  0.5425289614095572 0.165152457827861 0  0.1663208394680799 0.2644065126118989 0  0.1471335176887868 0.2433864007787126 0  0.1345556779484054 0.219852318055334 0  0.131940483167677 0.1932967226753857 0  0.1941574795820069 0.2685534232066453 0  0.2226696214021025 0.1252682734732412 0  0.2193882214552426 0.2661718674478616 0  0.1396865053227576 0.1677617654469802 0  0.8749487631478475 0.295170577255529 0  1.424301820545763 0.1157348858866879 0  1.918515045506933 0.2902236143624367 0  1.744876807925144 0.306628844405037 0  0.2443979144126529 0.254353837216211 0  0.2569054246570621 0.2306780201523878 0  0.2632507216716993 0.2062296523407826 0  0.4609453431326088 0.3138128990490959 0  0.3578015395476809 0.08253318517696946 0  0.2529777826635333 0.155582948480283 0  0.1580369715200277 0.1487041474358234 0  0.652872088668587 0.3101079993636056 0  0.297147332491062 0.2558065812325378 0  0.6188247313471635 0.1101603945467571 0  0.8951149554961688 0.1123812542864208 0  1.592749166085722 0.2985190085719691 0  1.40420309431358 0.2992155383468256 0  1.649189110727275 0.1000387439201274 0  0.2301663900864273 0.1432830242131801 0  0.2064839406544439 0.1345771465164309 0  0.2548204572493643 0.1702022465417566 0  0.1606700828011604 0.2481621709908606 0  0.2605987457303776 0.1928909671966518 0  0.1826942838524941 0.2594610608897559 0  0.1456438338561037 0.2290651013631561 0  0.1387681034994896 0.2058679665896095 0  1.140902260384949 0.3081952438204152 0  2.123402621966431 0.2039515281261525 0  0.7272188829630218 0.1047469619375249 0  0.2060868819369127 0.2616331638469837 0  0.246763614216289 0.2411610007697902 0  0.1405961691450822 0.1819800466423126 0  1.149638048863541 0.08264492713269313 0  0.1809997740285721 0.1365020267363126 0  1.993198408221569 0.09755938404998035 0  0.2287111352430851 0.2547015941619741 0  0.3818716699056283 0.2060398770290832 0  0.39147508084147 0.2656155699545688 0  0.151201080877373 0.1608659990301362 0  0.0542521118046473 0.1382221876243976 0  0.06190301158313444 0.0685934933767465 0  1.317316039400266 0.1015983144534349 0  0.2176417279723976 0.1415790407114221 0  0.2401571300978209 0.1529210337009423 0  0.2618092962776011 0.3566662607419938 0  0.1941527094396574 0.1377969918002053 0  0.9590486261329707 0.3255353063371385 0  0.1708201090411339 0.1447474051814825 0  1.837592370686806 0.3302992722413595 0  0.3197015570210796 0.1212159119695666 0  0.4155281956943757 0.1409543952531078 0  0.0549491513262805 0.2307535706287103 0  0.1668210562270142 0.3605647861782867 0  0.2854688902460447 0.2093700809023571 0  2.013251581901814 0.3292746985146142 0  0.1192191106244758 0.2809901915857802 0  0.2487958366614321 0.04556523514103697 0  0.09061021186838321 0.2240174335271237 0  1.737143840576958 0.20912817770623 0  0.04515017012776967 0.2784708690411318 0  0.5347554646753627 0.08988970780599832 0  0.977104673723579 0.08241628541188413 0  0.336509991617897 0.2888965225844298 0  0.2569238041969055 0.2173711314485607 0  1.906541186051535 0.2125389476829634 0  0.1762338839607841 0.3102437166134606 0  1.449268841077636 0.201011295143529 0  0.8555371485878378 0.2099663446585434 0  1.837208236203613 0.07556229833764837 0  1.264402545318887 0.1992523923163096 0  1.068181074047183 0.2155119107017876 0  0.3158931250274742 0.3421721218291775 0  0.2731958384900449 0.2373435058667565 0  0.09875906484220501 0.1533097574901186 0  0.7355755433976705 0.2066339904079041 0  1.567440499207928 0.2049999999995983 0  1.329829828222916 0.3295825481537897 0  0.8214190147401245 0.07894167681990104 0  1.525459989258997 0.3394220200696043 0  0.1990897327079506 0.06300531675246424 0  0.244701762210989 0.3062404318132603 0  0.1033853772622983 0.3551443431224104 0  0.1178236825374896 0.07148041782551597 0  0.1558198999929474 0.04409380269139784 0  0.3389178979413869 0.198678920661321 0  0.310790717645908 0.2196004930752872 0  2.125022007676643 0.3402049371791425 0  2.130028889485561 0.06535501282233655 0  0.4821161335597635 0.1626909543876269 0  0.2838678108956019 0.1254276466262967 0  0.5062815929260498 0.2376271077316994 0  1.663059277092996 0.3422301118688678 0  1.82292665764828 0.1574809263836269 0  2.052538557905295 0.05717536030732174 0  0.3078251537889645 0.16056368457456 0  0.8108267070172145 0.3390047366820738 0  1.487254632568403 0.0703866281621833 0  0.155004430757041 0.2369517702015699 0  0.1725545045705267 0.2519594403466565 0  0.1445581653510352 0.2167994984574706 0  0.1420710285613199 0.1942747855116325 0  1.461861739291679 0.3471998553985149 0  0.2372128969196007 0.2453440460936858 0  0.1943665918892754 0.2580518465884657 0  0.2452139232912363 0.1629124725160763 0  0.2555786751481889 0.1825885041235872 0  2.14640473333793 0.2790222779730848 0  2.145589594789407 0.1282024626544199 0  0.1486651579751984 0.1726583296292201 0  0.550000000001476 0.3603327897285098 0  0.0505668771231032 0.3660023622363767 0  1.049999999997169 0.05217028468202135 0  1.244771793631775 0.05744029386223062 0  0.1356759337238615 0.1094447816941579 0  0.5872326411628903 0.2223148728195226 0  0.2168458206248643 0.2558159203714847 0  1.749999999998732 0.05166028789524129 0  0.2855257256666041 0.1763246086558152 0  1.92
[...]
<PointData  Vectors="f_22"> 
<DataArray  type="Float64"  Name="f_22"  NumberOfComponents="3" format="ascii">0.0000000000000000e+00 0.0000000000000000e+00 0.0000000000000000e+00  0.0000000000000000e+00 0.0000000000000000e+00 0.0000000000000000e+00  0.0000000000000000e+00 0.0000000000000000e+00 0.0000000000000000e+00  0.0000000000000000e+00 0.0000000000000000e+00 0.0000000000000000e+00  0.0000000000000000e+00 0.0000000000000000e+00 0.0000000000000000e+00  0.0000000000000000e+00 0.0000000000000000e+00 0.0000000000000000e+00  0.0000000000000000e+00 0.0000000000000000e+00 0.0000000000000000e+00  0.0000000000000000e+00 0.0000000000000000e+00 0.0000000000000000e+00  0.0000000000000000e+00 0.0000000000000000e+00 0.0000000000000000e+00  0.0000000000000000e+00 0.0000000000000000e+00 0.0000000000000000e+00  0.0000000000000000e+00 0.0000000000000000e+00 0.0000000000000000e+00  0.0000000000000000e+00 0.0000000000000000e+00 0.0000000000000000e+00  0.0000000000000000e+00 0.0000000000000000e+00 0.0000000000000000e+00  0.0000000000000000e+00 0.0000000000000000e+00 0.0000000000000000e+00  0.0000000000000000e+00 0.0000000000000000e+00 0.0000000000000000e+00  0.0000000000000000e+00 0.0000000000000000e+00 0.0000000000000000e+00  0.0000000000000000e+00 0.0000000000000000e+00 0.0000000000000000e+00  0.0000000000000000e+00 0.0000000000000000e+00 0.0000000000000000e+00  0.0000000000000000e+00 0.0000000000000000e+00 0.0000000000000000e+00  0.0000000000000000e+00 0.0000000000000000e+00 0.0000000000000000e+00  0.0000000000000000e+00 0.0000000000000000e+00 0.0000000000000000e+00  0.0000000000000000e+00 0.0000000000000000e+00 0.0000000000000000e+00  0.0000000000000000e+00 0.0000000000000000e+00 0.0000000000000000e+00  0.0000000000000000e+00 0.0000000000000000e+00 0.0000000000000000e+00  0.0000000000000000e+00 0.0000000000000000e+00 0.0000000000000000e+00  0.0000000000000000e+00 0.0000000000000000e+00 0.0000000000000000e+00  0.0000000000000000e+00 0.0000000000000000e+00 0.0000000000000000e+00  0.0000000000000000e+00 0.0000000000000000e+00 0.0000000000000000e+00  0.0000000000000000e+00 0.0000000000000000e+00 0.0000000000000000e+00  0.0000000000000000e+00 0.0000000000000000e+00 0.0000000000000000e+00  0.0000000000000000e+00 0.0000000000000000e+00 0.0000000000000000e+00  0.0000000000000000e+00 0.0000000000000000e+00 0.0000000000000000e+00  0.0000000000000000e+00 0.0000000000000000e+00 0.0000000000000000e+00  0.0000000000000000e+00 0.0000000000000000e+00 0.0000000000000000e+00  0.0000000000000000e+00 0.0000000000000000e+00 0.0000000000000000e+00  0.0000000000000000e+00 0.0000000000000000e+00 0.0000000000000000e+00  0.0000000000000000e+00 0.0000000000000000e+00 0.0000000000000000e+00  0.0000000000000000e+00 0.0000000000000000e+00 0.0000000000000000e+00  0.0000000000000000e+00 0.0000000000000000e+00 0.0000000000000000e+00  0.0000000000000000e+00 0.0000000000000000e+00 0.0000000000000000e+00  0.0000000000000000e+00 0.0000000000000000e+00 0.0000000000000000e+00  0.0000000000000000e+00 0.0000000000000000e+00 0.0000000000000000e+00  0.0000000000000000e+00 0.0000000000000000e+00 0.0000000000000000e+00  0.0000000000000000e+00 0.0000000000000000e+00 0.0000000000000000e+00  0.0000000000000000e+00 0.0000000000000000e+00 0.0000000000000000e+00  0.0000000000000000e+00 0.0000000000000000e+00 0.0000000000000000e+00  0.0000000000000000e+00 0.0000000000000000e+00 0.0000000000000000e+00  0.0000000000000000e+00 0.0000000000000000e+00 0.0000000000000000e+00  0.0000000000000000e+00 0.0000000000000000e+00 0.0000000000000000e+00  0.0000000000000000e+00 0.0000000000000000e+00 0.0000000000000000e+00  0.0000000000000000e+00 0.0000000000000000e+00 0.0000000000000000e+00  0.0000000000000000e+00 0.0000000000000000e+00 0.0000000000000000e+00  0.0000000000000000e+00 0.0000000000000000e+00 0.0000000000000000e+00  0.0000000000000000e+00 0.0000000000000000e+00 0.0000000000000000e+00  0.0000000000000000e+00 0.0000000000000000e+00 0.0000000000000000e+00  0.0000000000000000e+00 0.0000000000000000e+00 0.0000000000000000e+00  0.0000000000000000e+00 0.0000000000000000e+00 0.0000000000000000e+00  1.0872373174430541e+00 -5.7931077578363035e-04 0.0000000000000000e+00  1.2639473827946357e+00 -4.0867884638328182e-02 0.0000000000000000e+00  1.2809039870062087e+00 -2.9941027214091573e-02 0.0000000000000000e+00  1.0946253214586190e+00 -5.7013704002577036e-03 0.0000000000000000e+00  0.0000000000000000e+00 0.0000000000000000e+00 0.0000000000000000e+00  0.0000000000000000e+00 0.0000000000000000e+00 0.0000000000000000e+00  0.0000000000000000e+00 0.0000000000000000e+00 0.0000000000000000e+00  0.0000000000000000e+00 0.0000000000000000e+00 0.0000000000000000e+00  0.0000000000000000e+00 0.0000000000000000e+00 0.0000000000000000e+00  0.0000000000000000e+00 0.0000000000000000e+00 0.0000000000000000e+00  0.0000000000000000e+00 0.0000000000000000e+00 0.0000000000000000e+00  0.0000000000000000e+00 0.0000000000000000e+00 0.0000000000000000e+00  0.0000000000000000e+00 0.0000000000000000e+00 0.0000000000000000e+00  0.0000000000000000e+00 0.0000000000000000e+00 0.0000000000000000e+00  0.0000000000000000e+00 0.0000000000000000e+00 0.0000000000000000e+00  0.0000000000000000e+00 0.0000000000000000e+00 0.0000000000000000e+00  0.0000000000000000e+00 0.0000000000000000e+00 0.0000000000000000e+00  0.0000000000000000e+00 0.0000000000000000e+00 0.0000000000000000e+00  0.0000000000000000e+00 0.0000000000000000e+00 0.0000000000000000e+00  0.0000000000000000e+00 0.0000000000000000e+00 0.0000000000000000e+00  0.0000000000000000e+00 0.0000000000000000e+00 0.0000000000000000e+00  0.0000000000000000e+00 0.0000000000000000e+00 0.0000000000000000e+00  0.0000000000000000e+00 0.0000000000000000e+00 0.0000000000000000e+00  0.0000000000000000e+00 0.0000000000000000e+00 0.0000000000000000e+00  0.0000000000000000e+00 0.0000000000000000e+00 0.0000000000000000e+00  9.6000004905056535e-01 0.0000000000000000e+00 0.0000000000000000e+00  1.4400000735771703e+00 0.0000000000000000e+00 0.0000000000000000e+00  1.4400000735797489e+00 0.0000000000000000e+00 0.0000000000000000e+00  9.6000004905420477e-01 0.0000000000000000e+00 0.0000000000000000e+00  -1.9489494790767076e-01 -1.9887495671437036e-01 0.0000000000000000e+00  5.3332758532477120e-01 -2.4421115612960020e-01 0.0000000000000000e+00  2.3405543546880167e-01 -3.6175722449391656e-01 0.0000000000000000e+00  1.8399497555972499e+00 -6.5649059717430458e-02 0.0000000000000000e+00  1.9244720136426341e+00 -2.7665357326549886e-02 0.0000000000000000e+00  1.4559434203583093e+00 1.8134918232226518e-01 0.0000000000000000e+00  1.3254629565883760e+00 3.4788944242160658e-01 0.0000000000000000e+00  1.3374218194489531e+00 2.7074923581040000e-01 0.0000000000000000e+00  1.3059429484343155e+00 -5.6178223927043282e-02 0.0000000000000000e+00  1.2582645433589399e+00 -3.1330098332268885e-01 0.0000000000000000e+00  1.3979880142149792e+00 -3.7250014485406269e-01 0.0000000000000000e+00  -2.4519434564453343e-01 -9.9849575098736001e-02 0.0000000000000000e+00  1.2868087316695807e+00 1.1115486111734643e-01 0.0000000000000000e+00  1.6181873092860264e-02 -6.0013391175189931e-02 0.0000000000000000e+00  -9.4735814784009220e-02 9.5573076271466911e-02 0.0000000000000000e+00  1.2989910790743453e+00 -7.9936149043210447e-01 0.0000000000000000e+00  4.1270804156589280e-01 6.4766369569983120e-02 0.0000000000000000e+00  1.8738671466979642e+00 -2.4014141628592317e-01 0.0000000000000000e+00  1.6217782813677899e+00 -1.7579199755311220e-01 0.0000000000000000e+00  1.7898107782137564e+00 5.3377693597350906e-01 0.0000000000000000e+00  1.4235224980471997e+00 2.8738339997576073e-01 0.0000000000000000e+00  1.8517326732526149e+00 1.6527510995999714e-01 0.0000000000000000e+00  1.4125933614979362e+00 -2.2391124010009553e-01 0.0000000000000000e+00  8.8450164720307278e-01 -5.1893478747870030e-02 0.0000000000000000e+00  2.0352557494848691e+00 4.0019184039283728e-01 0.0000000000000000e+00  1.8981527503282714e+00 6.2910862086570984e-01 0.0000000000000000e+00  1.5150515976783636e+00 7.8214157979413423e-01 0.0000000000000000e+00  1.1581347659070191e+00 5.7714898607561904e-01 0.0000000000000000e+00  9.4214077839329735e-01 1.2425142589135947e-01 0.0000000000000000e+00  9.8106299332614755e-01 -3.8097206776374376e-01 0.0000000000000000e+00  1.2824007402760393e+00 -6.8780598425903661e-01 0.0000000000000000e+00  1.6378513567084567e+00 -7.1383116856458406e-01 0.0000000000000000e+00  1.8957135664868863e+00 -5.3027056577362741e-01 0.0000000000000000e+00  1.2943681602994144e+00 -2.1165112059191232e-02 0.0000000000000000e+00  1.6586739544768714e+00 2.9984887930122956e-02 0.0000000000000000e+00  1.5951308317823356e+00 -1.5170258993687252e-01 0.0000000000000000e+00  -1.3801607045217312e-01 -1.3918975921591022e-02 0.0000000000000000e+00  1.5772752748832446e+00 4.5425945551486058e-01 0.0000000000000000e+00  1.8348795780571077e+00 -4.1480037722310195e-02 0.0000000000000000e+00  1.5560397198838494e+00 -1.4365038337795913e-01 0.0000000000000000e+00  1.1676357275475315e+00 -2.4239349698335921e-02 0.0000000000000000e+00  1.3458711622612978e+00 -3.1462832226274232e-02 0.0000000000000000e+00  -9.4160908429970505e-02 1.5278610186957761e-01 0.0000000000000000e+00  9.6695640948051598e-01 -8.9021756939288474e-02 0.0000000000000000e+00  1.1481822779829047e+00 4.3330827848215951e-02 0.0000000000000000e+00  1.5408040369531650e+00 1.6577296880278455e-01 0.0000000000000000e+00  6.9481592920399093e-01 -2.1939499954839811e-01 0.0000000000000000e+00  1.3883897767255196e+00 -1.2568311623274400e-02 0.0000000000000000e+00  1.2878612325300134e+00 -1.6674703956651413e-02 0.0000000000000000e+00  -7.5318136932550434e-02 -5.5107275689920382e-02 0.0000000000000000e+00  9.4627252741810763e-01 -1.4605240750650456e-01 0.0000000000000000e+00  1.5259146630870533e+00 -2.8535446659603669e-01 0.0000000000000000e+00  1.0818565678475582e+00 1.7565630148442626e-01 0.0000000000000000e+00  1.1144434930761469e+00 6.0110506221098403e-01 0.0000000000000000e+00  1.7758570001832181e+00 8.6037164975961022e-01 0.0000000000000000e+00  1.2533168375149173e+00 9.6065472528092444e-01 0.0000000000000000e+00  7.6758740158052197e-01 5.3303355321067769e-01 0.0000000000000000e+00  6.4458012075120230e-01 -1.7630015824995551e-01 0.0000000000000000e+00  2.0716488599683553e+00 5.8012656241444205e-01 0.0000000000000000e+00  1.9032961784608666e+00 -3.0535956001012365e-01 0.0000000000000000e+00  1.6118658503045982e+00 1.8825438355759797e-01 0.0000000000000000e+00  9.5774990438502594e-01 -7.8318578204488509e-01 0.0000000000000000e+00  8.7387277836158661e-01 3.8396310477331108e-01 0.0000000000000000e+00  1.1336386254233872e+00 3.1483913662903949e-02 0.0000000000000000e+00  1.1971911334972969e+00 9.3483007890536027e-02 0.0000000000000000e+00  1.1370195495136823e+00 3.7729350276362338e-02 0.0000000000000000e+00  3.5671493785047131e-01 4.0450638749172228e-02 0.0000000000000000e+00  -6.4424626321916520e-02 1.7739788638367232e-01 0.0000000000000000e+00  -7.0701784643879939e-02 1.1084529632318536e-01 0.0000000000000000e+00  1.5484853730276327e+00 5.2574214144270312e-02 0.0000000000000000e+00  1.8684740200823009e+00 1.0794920872816934e-01 0.0000000000000000e+00  -2.0168734537666638e-02 -4.3229669267000788e-02 0.0000000000000000e+00  1.4996435509939077e+00 -1.0334724928973120e+00 0.0000000000000000e+00  1.4763334799777204e+00 -3.8347814986356549e-01 0.0000000000000000e+00  7.0922281093491069e-01 -3.6071987250797050e-02 0.0000000000000000e+00  7.9575289643633806e-01 -7.3977222181381641e-02 0.0000000000000000e+00  1.1046124453135202e+00 9.9903130089030928e-02 0.0000000000000000e+00  1.1158456874604568e+00 -3.9070414071732229e-02 0.0000000000000000e+00  1.3506556298958921e+00 9.2890128817664244e-02 0.0000000000000000e+00  1.1572448595547808e+00 -1.2185702154442966e-01 0.0000000000000000e+00  4.1743469254184701e-01 -3.4249089296724870e-02 0.0000000000000000e+00  1.6868466306655390e+00 -3.4276859643303142e-01 0.0000000000000000e+00  -5.2379591566443374e-02 -4.6777510452666572e-02 0.0000000000000000e+00  1.5392689895163625e+00 1.1309162205078227e+00 0.0000000000000000e+00  -4.1478754785984021e-02 3.5951882600942620e-02 0.0000000000000000e+00  1.9391327380342971e+00 7.7449289327131288e-01 0.0000000000000000e+00  8.5485816791715019e-01 9.4410228690980547e-01 0.0000000000000000e+00  4.3269915322801000e-01 2.2077270725991602e-01 0.0000000000000000e+00  9.9390356782185052e-01 -1.9631885336847824e-03 0.0000000000000000e+00  1.3009990009862968e+00 -7.2173820937893471e-02 0.0000000000000000e+00  1.1425464980677451e+00 -2.1306384162473313e-01 0.0000000000000000e+00  1.4904329020486242e+00 2.4054706541468671e-01 0.0000000000000000e+00  -3.7341098714930805e-02 1.1210801345002235e-01 0.0000000000000000e+00  5.9021713308758450e-01 -6.1064811719621859e-01 0.0000000000000000e+00  1.1508510798277032e+00 -5.6375594870685594e-02 0.0000000000000000e+00  1.9245149869109364e+00 -7.9799387113691167e-01 0.0000000000000000e+00  1.1298560342732060e+00 -1.0722812894133123e-04 0.0000000000000000e+00  3.6732010258692627e-01 1.5502410665599981e-02 0.0000000000000000e+00  -3.9799940389392630e-01 -6.4258810066942806e-01 0.0000000000000000e+00  1.1289615186367943e+00 -4.1479257120566632e-01 0.0000000000000000e+00  1.1531473975967250e+00 -1.0741385409882609e+00 0.0000000000000000e+00  1.3179556129418875e+00 -1.2411326466432981e-01 0.0000000000000000e+00  8.8082439956074721e-01 -1.0531295148073079e-01 0.0000000000000000e+00  1.0635481794201309e+00 8.1902502521556883e-02 0.0000000000000000e+00  6.9093104779758618e-01 -6.0426845195369422e-02 0.0000000000000000e+00  -1.7892214140186307e-03 -4.1573173620832002e-02 0.0000000000000000e+00  1.3538925289232118e+00 2.8442533403972986e-02 0.0000000000000000e+00  1.7709447368401581e+00 -5.1341847214677450e-01 0.0000000000000000e+00  1.3208362189309129e+00 -3.8424834967169724e-02 0.0000000000000000e+00  1.7545244108022455e+00 -9.9368486065514561e-01 0.0000000000000000e+00  9.7005056637147535e-01 4.6449399801246273e-02 0.0000000000000000e+00  1.5903445947136405e+00 -1.7612231818948925e-02 0.0000000000000000e+00  1.5635917061339555e+00 2.7468578000128763e-01 0.0000000000000000e+00  1.4156946180112144e+00 9.9349714246642032e-02 0.0000000000000000e+00  1.0316147158977305e+00 1.5095747927823130e-01 0.0000000000000000e+00  -1.8716789045529003e-01 4.6607821736487448e-02 0.0000000000000000e+00  1.0874665294505390e+00 1.1154266186147727e-02 0.0000000000000000e+00  1.3745577981507737e+00 4.4228768903827514e-01 0.0000000000000000e+00  1.3240867362663562e+00 -7.5789736237086305e-02 0.0000000000000000e+00  1.2745069869308656e+00 1.8181085365849145e-01 0.0000000000000000e+00  1.4152699192697595e+00 8.0302688029930999e-02 0.0000000000000000e+00  1.3053350619688502e+00 1.2312704289553643e-01 0.0000000000000000e+00  1.1768216872519568e+00 2.0143223359444395e-01 0.0000000000000000e+00  7.7756752992180234e-01 1.3266945297348756e-01 0.0000000000000000e+00  1.8954051588260219e+00 -2.6149989629344844e-01 0.0000000000000000e+00  -6.2824352087801572e-02 1.6556711649362224e-01 0.0000000000000000e+00  1.3870653965688438e+00 1.3719476158010216e-01 0.0000000000000000e+00  1.5931526393128985e+00 3.8759357870873223e-01 0.0000000000000000e+00  1.4430014537416227e+00 -1.0731574581757551e-01 0.0000000000000000e+00  1.4946899775394002e+00 7.8307801507247976e-01 0.0000000000000000e+00  9.6816431061353958e-01 -2.3057584375783396e-02 0.0000000000000000e+00  1.6764775741503199e+00 6.8115755268295081e-02 0.0000000000000000e+00  1.7732079023095677e+00 -4.9296894407783781e-01 0.0000000000000000e+00  1.5281443756871800e+00 -7.1480188141781184e-02 0.0000000000000000e+00  3.0010489436721785e-02 1.3850549882744628e-01 0.0000000000000000e+00  1.2654379487610663e+00 -3.0371799225813378e-01 0.0000000000000000e+00  1.3670538220501918e+00 -4.9295124817613134e-01 0.0000000000000000e+00  1.7594647419561558e+00 -1.2211049492601969e-01 0.0000000000000000e+00  8.3305316441076505e-01 9.0730033856445791e-02 0.0000000000000000e+00  1.1925695279106772e+00 2.0505997664870326e-01 0.0000000000000000e+00  8.1733494880059865e-01 -3.7251286824677876e-02 0.0000000000000000e+00  1.3602059174677028e+00 -2.1674012267810830e-01 0.0000000000000000e+00  1.8970954839247625e+00 1.4997168837465097e-01 0.0000000000000000e+00  8.5075185556614030e-01 1.4005802806741707e-01 0.0000000000000000e+00  1.0524256804975742e+00 -2.3189649362990047e-01 0.0000000000000000e+00  9.4129460999789194e-01 -1.5406039041081768e-01 0.0000000000000000e+00  -3.7718966067660581e-01 -3.5781757365547218e-01 0.0000000000000000e+00  -2.2301864188776588e-01 -5.7497817937055967e-02 0.0000000000000000e+00  1.0042890472151345e+00 -2.4551939658584393e-03 0.0000000000000000e+00  9.4577428311475398e-01 -7.0282768966305918e-03 0.0000000000000000e+00  1.4404321661710284e+00 9.2597013728688748e-01 0.0000000000000000e+00  1.4357204773356076e+00 -4.5413365815562066e-02 0.0000000000000000e+00  3.3363165903667258e-01 6.4647473292649704e-01 0.0000000000000000e+00  7.8397374558553967e-01 2.1467351911420851e-02 0.0000000000000000e+00  1.5099774594554820e+00 1.6061489619676014e-02 0.0000000000000000e+00  8.4980394911116097e-01 -6.2237907333228251e-03 0.0000000000000000e+00  7.9617659784232298e-02 -1.3802862421232992e-01 0.0000000000000000e+00  7.7454837183050529e-01 5.0787490009882127e-02 0.0000000000000000e+00  7.5651902188977327e-01 1.8627499125503870e-02 0.0000000000000000e+00  1.1129318618879867e+00 1.1551462866040136e+00 0.0000000000000000e+00  1.7050316249396162e+00 9.7353657182052000e-01 0.0000000000000000e+00  4.5833336064933483e-01 6.7254692110650560e-01 0.0000000000000000e+00  3.0349586923929384e-01 -2.2924181125062107e-01 0.0000000000000000e+00  7.8148167348065023e-01 -2.3849442509608961e-02 0.0000000000000000e+00  -1.5092350475131895e-02 5.5753428231157025e-02 0.0000000000000000e+00  1.4857446654527804e+00 3.7374783197943073e-01 0.0000000000000000e+00  -5.5702351815856734e-02 -4.4576787547897290e-02 0.0000000000000000e+00  -2.3132005509072601e-02 -4.7251485074420677e-03 0.0000000000000000e+00  1.2883057965885882e+00 -1.7751248827753098e-03 0.0000000000000000e+00  1.2168253251867771e+00 -4.4456567591933949e-02 0.0000000000000000e+00  7.3622935366829001e-01 -9.7206542808600094e-01 0.0000000000000000e+00  1.1465800028546818e+00 -9.6535590428316359e-02 0.0000000000000000e+00  6.1314712005442351e-01 5.4762546858066259e-02 0.0000000000000000e+00  6.2408018118232400e-01 -2.4871746166609740e-02 0.0000000000000000e+00  7.6957414055333695e-01 3.4786566701751072e-02 0.0000000000000000e+00  1.3719822592968896e+00 -4.6331568456844702e-01 0.0000000000000000e+00  1.0261896728501279e+00 3.0980420601368203e-01 0.0000000000000000e+00  5.3444315411772403e-01 1.8083273846606417e-02 0.0000000000000000e+00  7.0703882051814160e-01 -2.0465279409100562e-02 0.0000000000000000e+00  -1.1091743170372034e-01 -9.0434141940989476e-02 0.0000000000000000e+00  9.1172522285882751e-01 -8.7613184669836953e-03 0.0000000000000000e+00  1.4019249279896653e+00 2.4683480599610977e-01 0.0000000000000000e+00  6.0055290084994339e-01 -1.9365376099208270e-02 0.0000000000000000e+00  1.9324432673836223e+00 6.6074589548982723e-02 0.0000000000000000e+00  1.4588930192909666e+00 -3.3828208799283385e-03 0.0000000000000000e+00  1.5936235566380537e+00 5.8009970942694056e-01 0.0000000000000000e+00  7.7088632966247095e-01 5.6218313643690052e-02 0.0000000000000000e+00  1.5324600749716710e+00 -6.0191536613515333e-02 0.0000000000000000e+00  1.4794434885375933e+00 7.9293465025707791e-02 0.0000000000000000e+00  1.5345446415971380e+00 -3.0704610344941713e-01 0.0000000000000000e+00  1.4617607899137739e+00 2.9900189223914715e-03 0.0000000000000000e+00  1.3234924913612753e+00 -4.5215205298826791e-02 0.0000000000000000e+00  1.3971917713587065e+00 5.7486149512620689e-02 0.0000000000000000e+00  1.4513427439738047e+00 -2.7684352092090703e-01 0.0000000000000000e+00  1.5275739720608432e+00 -3.4707348353131672e-03 0.0000000000000000e+00  9.3622871129690166e-01 -3.3208850648140198e-01 0.0000000000000000e+00  1.3533747774577189e+0