<?xml version="1.0"?>
<VTKFile type="UnstructuredGrid"  version="0.1"  >
<UnstructuredGrid>
<Piece  NumberOfPoints="3852" NumberOfCells="7360">
<Points>
<DataArray  type="Float64"  NumberOfComponents="3"  format="ascii">0 0 0  0 0.41 0  2.2 0.41 0  2.2 0 0  0.2 0.15 0  0.15 0.2 0  0.2 0.25 0  0.25 0.2 0  0.2097545161007899 0.1509607359798352 0  0.219134171618224 0.153806023374423 0  0.2277785116509268 0.1584265193848371 0  0.2353553390592504 0.1646446609405956 0  0.2415734806150793 0.1722214883489481 0  0.2461939766255306 0.1808658283816641 0  0.249039264020151 0.1902454838991403 0  0.2490392640201666 0.2097545161007811 0  0.2461939766255869 0.2191341716182 0  0.2415734806151802 0.2277785116509009 0  0.2353553390594108 0.235355339059244 0  0.2277785116510524 0.2415734806150789 0  0.2191341716182962 0.2461939766255471 0  0.209754516100834 0.2490392640201561 0  0.1902454838992189 0.2490392640201666 0  0.1808658283818 0.2461939766255869 0  0.1722214883490991 0.2415734806151802 0  0.164644660940756 0.2353553390594108 0  0.1584265193849211 0.2277785116510524 0  0.1538060233744529 0.2191341716182962 0  0.150960735979844 0.209754516100834 0  0.1509607359798352 0.1902454838992101 0  0.153806023374423 0.180865828381776 0  0.1584265193848371 0.1722214883490732 0  0.1646446609405956 0.1646446609407496 0  0.1722214883489481 0.1584265193849207 0  0.1808658283816641 0.1538060233744694 0  0.1902454838991403 0.150960735979849 0  0.09999999999980318 0 0  0.1999999999996354 0 0  0.2999999999994593 0 0  0.3999999999991452 0 0  0.4999999999988309 0 0  0.599999999998495 0 0  0.6999999999982023 0 0  0.7999999999979096 0 0  0.8999999999975735 0 0  0.9999999999972848 0 0  1.099999999997053 0 0  1.199999999997309 0 0  1.299999999997566 0 0  1.399999999997821 0 0  1.49999999999809 0 0  1.599999999998377 0 0  1.69999999999859 0 0  1.799999999998877 0 0  1.899999999999145 0 0  1.999999999999386 0 0  2.099999999999693 0 0  2.2 0.08199999999981657 0  2.2 0.1639999999995688 0  2.2 0.2459999999995603 0  2.2 0.327999999999785 0  2.100000000000048 0.41 0  2.000000000000269 0.41 0  1.900000000000422 0.41 0  1.800000000000679 0.41 0  1.700000000000931 0.41 0  1.600000000001326 0.41 0  1.500000000001665 0.41 0  1.400000000002032 0.41 0  1.300000000002395 0.41 0  1.200000000002644 0.41 0  1.100000000002865 0.41 0  1.000000000002617 0.41 0  0.900000000002368 0.41 0  0.8000000000021192 0.41 0  0.7000000000018587 0.41 0  0.6000000000015786 0.41 0  0.5000000000013736 0.41 0  0.4000000000010933 0.41 0  0.3000000000008329 0.41 0  0.2000000000005997 0.41 0  0.1000000000003003 0.41 0  0 0.3280000000001975 0  0 0.2460000000004372 0  0 0.1640000000004437 0  0 0.08200000000021695 0  0.439039350479032 0.2235433210862024 0  0.3557293424662716 0.1539377961885917 0  0.3450132387946972 0.2399891502764809 0  0.2900756359792848 0.08507884665974728 0  0.2884413411145515 0.3059878288466324 0  0.2102195502178943 0.3385267178242456 0  0.137328909169326 0.3152847369018352 0  0.08490385663776813 0.2628976192695439 0  0.08063302347471875 0.188368977740952 0  0.1005937615311739 0.1162460982751979 0  0.1621860847198582 0.08598327887900903 0  0.3012864586130264 0.1926027915888804 0  1.999140000000448 0.2049999999995642 0  0.2742354912953259 0.1572259708446958 0  0.2871471664627305 0.2264358039321654 0  0.6542851578645765 0.1981889790488746 0  0.2651366296338276 0.2534562504463119 0  0.2371819217149928 0.0977949043027586 0  1.651678197071202 0.2145186615851206 0  1.349674714201118 0.2086119645070391 0  0.9627539291831038 0.2056711800839285 0  0.2360880502985623 0.2733043913425156 0  1.159884231859056 0.2050429640239795 0  0.2502927927237266 0.1358797630898622 0  0.2080582834123368 0.2835355213895352 0  0.1805439632603489 0.278338480667804 0  0.1486243506827335 0.2626014098227327 0  0.1266658889266303 0.2392753516137401 0  0.1179814841582247 0.2069380844236527 0  0.1225167704961566 0.1764957192948648 0  0.1357996569043286 0.1472158045151807 0  0.1619764829264572 0.126298308975886 0  0.1935640279204225 0.116654032325456 0  1.82457000000085 0.2346439024393236 0  0.8027657238591595 0.149277802568535 0  1.498563450727992 0.2632867809910664 0  0.2770405925201826 0.1924926016722167 0  0.470924801584011 0.09138612536042019 0  0.550693598792917 0.2898604497866635 0  0.381089831438127 0.3238078833671811 0  2.074516462495042 0.125705772324225 0  2.083599037046577 0.2769549245607841 0  0.2692296340100125 0.2210592970306522 0  0.7614733075682367 0.2839235561638241 0  1.536698221979284 0.1258192462655419 0  1.231809489345021 0.1282542717942667 0  1.054759157670174 0.1242749934189342 0  1.754535566851005 0.1223197024158991 0  1.90452621597739 0.1324728094649104 0  0.2672409321155211 0.178737994598723 0  1.254401531996246 0.2902808614622134 0  1.04350934597445 0.2986664252663559 0  0.0749710792305778 0.3208721925318313 0  0.5425289614095572 0.165152457827861 0  0.1663208394680799 0.2644065126118989 0  0.1471335176887868 0.2433864007787126 0  0.1345556779484054 0.219852318055334 0  0.131940483167677 0.1932967226753857 0  0.1941574795820069 0.2685534232066453 0  0.2226696214021025 0.1252682734732412 0  0.2193882214552426 0.2661718674478616 0  0.1396865053227576 0.1677617654469802 0  0.8749487631478475 0.295170577255529 0  1.424301820545763 0.1157348858866879 0  1.918515045506933 0.2902236143624367 0  1.744876807925144 0.306628844405037 0  0.2443979144126529 0.254353837216211 0  0.2569054246570621 0.2306780201523878 0  0.2632507216716993 0.2062296523407826 0  0.4609453431326088 0.3138128990490959 0  0.3578015395476809 0.08253318517696946 0  0.2529777826635333 0.155582948480283 0  0.1580369715200277 0.1487041474358234 0  0.652872088668587 0.3101079993636056 0  0.297147332491062 0.2558065812325378 0  0.6188247313471635 0.1101603945467571 0  0.8951149554961688 0.1123812542864208 0  1.592749166085722 0.2985190085719691 0  1.40420309431358 0.2992155383468256 0  1.649189110727275 0.1000387439201274 0  0.2301663900864273 0.1432830242131801 0  0.2064839406544439 0.1345771465164309 0  0.2548204572493643 0.1702022465417566 0  0.1606700828011604 0.2481621709908606 0  0.2605987457303776 0.1928909671966518 0  0.1826942838524941 0.2594610608897559 0  0.1456438338561037 0.2290651013631561 0  0.1387681034994896 0.2058679665896095 0  1.140902260384949 0.3081952438204152 0  2.123402621966431 0.2039515281261525 0  0.7272188829630218 0.1047469619375249 0  0.2060868819369127 0.2616331638469837 0  0.246763614216289 0.2411610007697902 0  0.1405961691450822 0.1819800466423126 0  1.149638048863541 0.08264492713269313 0  0.1809997740285721 0.1365020267363126 0  1.993198408221569 0.09755938404998035 0  0.2287111352430851 0.2547015941619741 0  0.3818716699056283 0.2060398770290832 0  0.39147508084147 0.2656155699545688 0  0.151201080877373 0.1608659990301362 0  0.0542521118046473 0.1382221876243976 0  0.06190301158313444 0.0685934933767465 0  1.317316039400266 0.1015983144534349 0  0.2176417279723976 0.1415790407114221 0  0.2401571300978209 0.1529210337009423 0  0.2618092962776011 0.3566662607419938 0  0.1941527094396574 0.1377969918002053 0  0.9590486261329707 0.3255353063371385 0  0.1708201090411339 0.1447474051814825 0  1.837592370686806 0.3302992722413595 0  0.3197015570210796 0.1212159119695666 0  0.4155281956943757 0.1409543952531078 0  0.0549491513262805 0.2307535706287103 0  0.1668210562270142 0.3605647861782867 0  0.2854688902460447 0.2093700809023571 0  2.013251581901814 0.3292746985146142 0  0.1192191106244758 0.2809901915857802 0  0.2487958366614321 0.04556523514103697 0  0.09061021186838321 0.2240174335271237 0  1.737143840576958 0.20912817770623 0  0.04515017012776967 0.2784708690411318 0  0.5347554646753627 0.08988970780599832 0  0.977104673723579 0.08241628541188413 0  0.336509991617897 0.2888965225844298 0  0.2569238041969055 0.2173711314485607 0  1.906541186051535 0.2125389476829634 0  0.1762338839607841 0.3102437166134606 0  1.449268841077636 0.201011295143529 0  0.8555371485878378 0.2099663446585434 0  1.837208236203613 0.07556229833764837 0  1.264402545318887 0.1992523923163096 0  1.068181074047183 0.2155119107017876 0  0.3158931250274742 0.3421721218291775 0  0.2731958384900449 0.2373435058667565 0  0.09875906484220501 0.1533097574901186 0  0.7355755433976705 0.2066339904079041 0  1.567440499207928 0.2049999999995983 0  1.329829828222916 0.3295825481537897 0  0.8214190147401245 0.07894167681990104 0  1.525459989258997 0.3394220200696043 0  0.1990897327079506 0.06300531675246424 0  0.244701762210989 0.3062404318132603 0  0.1033853772622983 0.3551443431224104 0  0.1178236825374896 0.07148041782551597 0  0.1558198999929474 0.04409380269139784 0  0.3389178979413869 0.198678920661321 0  0.310790717645908 0.2196004930752872 0  2.125022007676643 0.3402049371791425 0  2.130028889485561 0.06535501282233655 0  0.4821161335597635 0.1626909543876269 0  0.2838678108956019 0.1254276466262967 0  0.5062815929260498 0.2376271077316994 0  1.663059277092996 0.3422301118688678 0  1.82292665764828 0.1574809263836269 0  2.052538557905295 0.05717536030732174 0  0.3078251537889645 0.16056368457456 0  0.8108267070172145 0.3390047366820738 0  1.487254632568403 0.0703866281621833 0  0.155004430757041 0.2369517702015699 0  0.1725545045705267 0.2519594403466565 0  0.1445581653510352 0.2167994984574706 0  0.1420710285613199 0.1942747855116325 0  1.461861739291679 0.3471998553985149 0  0.2372128969196007 0.2453440460936858 0  0.1943665918892754 0.2580518465884657 0  0.2452139232912363 0.1629124725160763 0  0.2555786751481889 0.1825885041235872 0  2.14640473333793 0.2790222779730848 0  2.145589594789407 0.1282024626544199 0  0.1486651579751984 0.1726583296292201 0  0.550000000001476 0.3603327897285098 0  0.0505668771231032 0.3660023622363767 0  1.049999999997169 0.05217028468202135 0  1.244771793631775 0.05744029386223062 0  0.1356759337238615 0.1094447816941579 0  0.5872326411628903 0.2223148728195226 0  0.2168458206248643 0.2558159203714847 0  1.749999999998732 0.05166028789524129 0  0.2855257256666041 0.1763246086558152 0  1.92
[...]
<PointData  Vectors="f_22"> 
<DataArray  type="Float64"  Name="f_22"  NumberOfComponents="3" format="ascii">0.0000000000000000e+00 0.0000000000000000e+00 0.0000000000000000e+00  0.0000000000000000e+00 0.0000000000000000e+00 0.0000000000000000e+00  0.0000000000000000e+00 0.0000000000000000e+00 0.0000000000000000e+00  0.0000000000000000e+00 0.0000000000000000e+00 0.0000000000000000e+00  0.0000000000000000e+00 0.0000000000000000e+00 0.0000000000000000e+00  0.0000000000000000e+00 0.0000000000000000e+00 0.0000000000000000e+00  0.0000000000000000e+00 0.0000000000000000e+00 0.0000000000000000e+00  0.0000000000000000e+00 0.0000000000000000e+00 0.0000000000000000e+00  0.0000000000000000e+00 0.0000000000000000e+00 0.0000000000000000e+00  0.0000000000000000e+00 0.0000000000000000e+00 0.0000000000000000e+00  0.0000000000000000e+00 0.0000000000000000e+00 0.0000000000000000e+00  0.0000000000000000e+00 0.0000000000000000e+00 0.0000000000000000e+00  0.0000000000000000e+00 0.0000000000000000e+00 0.0000000000000000e+00  0.0000000000000000e+00 0.0000000000000000e+00 0.0000000000000000e+00  0.0000000000000000e+00 0.0000000000000000e+00 0.0000000000000000e+00  0.0000000000000000e+00 0.0000000000000000e+00 0.0000000000000000e+00  0.0000000000000000e+00 0.0000000000000000e+00 0.0000000000000000e+00  0.0000000000000000e+00 0.0000000000000000e+00 0.0000000000000000e+00  0.0000000000000000e+00 0.0000000000000000e+00 0.0000000000000000e+00  0.0000000000000000e+00 0.0000000000000000e+00 0.0000000000000000e+00  0.0000000000000000e+00 0.0000000000000000e+00 0.0000000000000000e+00  0.0000000000000000e+00 0.0000000000000000e+00 0.0000000000000000e+00  0.0000000000000000e+00 0.0000000000000000e+00 0.0000000000000000e+00  0.0000000000000000e+00 0.0000000000000000e+00 0.0000000000000000e+00  0.0000000000000000e+00 0.0000000000000000e+00 0.0000000000000000e+00  0.0000000000000000e+00 0.0000000000000000e+00 0.0000000000000000e+00  0.0000000000000000e+00 0.0000000000000000e+00 0.0000000000000000e+00  0.0000000000000000e+00 0.0000000000000000e+00 0.0000000000000000e+00  0.0000000000000000e+00 0.0000000000000000e+00 0.0000000000000000e+00  0.0000000000000000e+00 0.0000000000000000e+00 0.0000000000000000e+00  0.0000000000000000e+00 0.0000000000000000e+00 0.0000000000000000e+00  0.0000000000000000e+00 0.0000000000000000e+00 0.0000000000000000e+00  0.0000000000000000e+00 0.0000000000000000e+00 0.0000000000000000e+00  0.0000000000000000e+00 0.0000000000000000e+00 0.0000000000000000e+00  0.0000000000000000e+00 0.0000000000000000e+00 0.0000000000000000e+00  0.0000000000000000e+00 0.0000000000000000e+00 0.0000000000000000e+00  0.0000000000000000e+00 0.0000000000000000e+00 0.0000000000000000e+00  0.0000000000000000e+00 0.0000000000000000e+00 0.0000000000000000e+00  0.0000000000000000e+00 0.0000000000000000e+00 0.0000000000000000e+00  0.0000000000000000e+00 0.0000000000000000e+00 0.0000000000000000e+00  0.0000000000000000e+00 0.0000000000000000e+00 0.0000000000000000e+00  0.0000000000000000e+00 0.0000000000000000e+00 0.0000000000000000e+00  0.0000000000000000e+00 0.0000000000000000e+00 0.0000000000000000e+00  0.0000000000000000e+00 0.0000000000000000e+00 0.0000000000000000e+00  0.0000000000000000e+00 0.0000000000000000e+00 0.0000000000000000e+00  0.0000000000000000e+00 0.0000000000000000e+00 0.0000000000000000e+00  0.0000000000000000e+00 0.0000000000000000e+00 0.0000000000000000e+00  0.0000000000000000e+00 0.0000000000000000e+00 0.0000000000000000e+00  0.0000000000000000e+00 0.0000000000000000e+00 0.0000000000000000e+00  0.0000000000000000e+00 0.0000000000000000e+00 0.0000000000000000e+00  0.0000000000000000e+00 0.0000000000000000e+00 0.0000000000000000e+00  0.0000000000000000e+00 0.0000000000000000e+00 0.0000000000000000e+00  0.0000000000000000e+00 0.0000000000000000e+00 0.0000000000000000e+00  0.0000000000000000e+00 0.0000000000000000e+00 0.0000000000000000e+00  0.0000000000000000e+00 0.0000000000000000e+00 0.0000000000000000e+00  0.0000000000000000e+00 0.0000000000000000e+00 0.0000000000000000e+00  0.0000000000000000e+00 0.0000000000000000e+00 0.0000000000000000e+00  9.6107079538929574e-01 -1.0718957078571115e-01 0.0000000000000000e+00  1.4647518889241022e+00 -3.5832595619873892e-01 0.0000000000000000e+00  1.4415703235352064e+00 -2.6982848141335691e-01 0.0000000000000000e+00  9.0575275925862431e-01 -3.2132545736598878e-02 0.0000000000000000e+00  0.0000000000000000e+00 0.0000000000000000e+00 0.0000000000000000e+00  0.0000000000000000e+00 0.0000000000000000e+00 0.0000000000000000e+00  0.0000000000000000e+00 0.0000000000000000e+00 0.0000000000000000e+00  0.0000000000000000e+00 0.0000000000000000e+00 0.0000000000000000e+00  0.0000000000000000e+00 0.0000000000000000e+00 0.0000000000000000e+00  0.0000000000000000e+00 0.0000000000000000e+00 0.0000000000000000e+00  0.0000000000000000e+00 0.0000000000000000e+00 0.0000000000000000e+00  0.0000000000000000e+00 0.0000000000000000e+00 0.0000000000000000e+00  0.0000000000000000e+00 0.0000000000000000e+00 0.0000000000000000e+00  0.0000000000000000e+00 0.0000000000000000e+00 0.0000000000000000e+00  0.0000000000000000e+00 0.0000000000000000e+00 0.0000000000000000e+00  0.0000000000000000e+00 0.0000000000000000e+00 0.0000000000000000e+00  0.0000000000000000e+00 0.0000000000000000e+00 0.0000000000000000e+00  0.0000000000000000e+00 0.0000000000000000e+00 0.0000000000000000e+00  0.0000000000000000e+00 0.0000000000000000e+00 0.0000000000000000e+00  0.0000000000000000e+00 0.0000000000000000e+00 0.0000000000000000e+00  0.0000000000000000e+00 0.0000000000000000e+00 0.0000000000000000e+00  0.0000000000000000e+00 0.0000000000000000e+00 0.0000000000000000e+00  0.0000000000000000e+00 0.0000000000000000e+00 0.0000000000000000e+00  0.0000000000000000e+00 0.0000000000000000e+00 0.0000000000000000e+00  0.0000000000000000e+00 0.0000000000000000e+00 0.0000000000000000e+00  9.6000005187658810e-01 0.0000000000000000e+00 0.0000000000000000e+00  1.4400000778162045e+00 0.0000000000000000e+00 0.0000000000000000e+00  1.4400000778187829e+00 0.0000000000000000e+00 0.0000000000000000e+00  9.6000005188022752e-01 0.0000000000000000e+00 0.0000000000000000e+00  9.3378533459194901e-01 -1.3268703259576048e-01 0.0000000000000000e+00  9.9534953182080510e-01 6.6100526305963314e-01 0.0000000000000000e+00  1.7632597889817397e-01 3.2798688084933553e-01 0.0000000000000000e+00  1.7912528956674518e+00 1.0431218161308239e-01 0.0000000000000000e+00  1.8988369924937856e+00 7.8589317940305020e-02 0.0000000000000000e+00  1.4232694487432405e+00 2.0232741143429001e-01 0.0000000000000000e+00  1.2944122120047787e+00 3.3041709521194179e-01 0.0000000000000000e+00  1.3244458830571171e+00 2.2914296166113488e-01 0.0000000000000000e+00  1.3097397894405738e+00 -1.0694263877314822e-01 0.0000000000000000e+00  1.2796831040872452e+00 -3.4528684539568416e-01 0.0000000000000000e+00  1.4375560906233449e+00 -3.6456652755806773e-01 0.0000000000000000e+00  -2.5568873982555679e-01 -1.2836719919109066e-01 0.0000000000000000e+00  1.5363269017557197e+00 1.9308848400776368e-01 0.0000000000000000e+00  2.4162881888662333e-01 -1.7803602406510752e-01 0.0000000000000000e+00  -1.7179420408731205e-01 -8.9568460719700212e-03 0.0000000000000000e+00  1.5082947060642347e+00 6.9820527330660342e-01 0.0000000000000000e+00  2.2243739188528325e-01 -2.0257490378105703e-02 0.0000000000000000e+00  1.9121589492028519e+00 -1.4132066463358567e-01 0.0000000000000000e+00  1.5354244571927615e+00 -2.6953033359415046e-01 0.0000000000000000e+00  1.4490153585873042e+00 -3.1960756461240869e-01 0.0000000000000000e+00  1.4227935715094269e+00 -2.9144204709569543e-01 0.0000000000000000e+00  1.7215562534330107e+00 1.8921594952563081e-01 0.0000000000000000e+00  1.4743306997496757e+00 3.7265831184660408e-01 0.0000000000000000e+00  1.2038133386312930e+00 -1.8384059652349072e-02 0.0000000000000000e+00  1.9743770117611348e+00 4.2503443708741256e-01 0.0000000000000000e+00  1.8388223987182146e+00 6.2488029711795667e-01 0.0000000000000000e+00  1.4701519898908593e+00 7.4369615183357951e-01 0.0000000000000000e+00  1.1327909155822133e+00 5.1934477333122964e-01 0.0000000000000000e+00  9.3846072133431102e-01 5.7176411302500542e-02 0.0000000000000000e+00  9.9945207324838703e-01 -4.4543074962271328e-01 0.0000000000000000e+00  1.3234437036262847e+00 -7.3473056755252819e-01 0.0000000000000000e+00  1.7011245259524661e+00 -7.2731135189592722e-01 0.0000000000000000e+00  1.9713590994158818e+00 -4.9480252839295674e-01 0.0000000000000000e+00  1.3383387735366434e+00 -8.6294966902426655e-03 0.0000000000000000e+00  1.0250202438600626e+00 3.3764312772475580e-01 0.0000000000000000e+00  1.3528376018846393e+00 4.7213902207989927e-01 0.0000000000000000e+00  -1.4085107666265384e-01 -2.4324135353048071e-01 0.0000000000000000e+00  1.3288920208109798e+00 -1.0085951818472141e-01 0.0000000000000000e+00  1.2230619047670395e+00 -2.9898313401373156e-01 0.0000000000000000e+00  1.8016258893384640e+00 -1.7187606438220773e-01 0.0000000000000000e+00  1.1021965952136188e+00 -2.2289796862746906e-02 0.0000000000000000e+00  1.5208383621934980e+00 -7.8111399521647154e-02 0.0000000000000000e+00  -1.0932255168668500e-01 -6.3010655709098529e-02 0.0000000000000000e+00  1.3653266010927874e+00 2.2048871790461672e-01 0.0000000000000000e+00  1.1993394905657651e+00 2.9959127953651693e-01 0.0000000000000000e+00  1.1050752689691421e+00 -2.6814441546804813e-01 0.0000000000000000e+00  1.4208905493505675e+00 3.0396237268990084e-01 0.0000000000000000e+00  1.3211517317882131e+00 -2.9924115509258498e-01 0.0000000000000000e+00  1.4169646549994022e+00 3.0103108283985047e-01 0.0000000000000000e+00  -5.3962398857799312e-02 -3.0294956847557281e-01 0.0000000000000000e+00  1.3748770583530165e+00 -2.9950672692681518e-01 0.0000000000000000e+00  7.4908435083871394e-01 1.6848283350529791e-01 0.0000000000000000e+00  1.0710842692018698e+00 1.5303095436900285e-01 0.0000000000000000e+00  9.4443194938263686e-01 -6.6390842972453590e-01 0.0000000000000000e+00  1.7175744317099586e+00 8.3428084498281485e-01 0.0000000000000000e+00  1.2113862435428637e+00 9.0603535200442786e-01 0.0000000000000000e+00  7.4888371747326754e-01 4.6247311402772251e-01 0.0000000000000000e+00  6.5228138969611604e-01 -2.5079318101666193e-01 0.0000000000000000e+00  1.9913335059362998e+00 5.8355349629177089e-01 0.0000000000000000e+00  2.0526201830378690e+00 -2.3803028442273325e-01 0.0000000000000000e+00  1.4814486483831573e+00 2.0090585495605914e-01 0.0000000000000000e+00  9.9312571005092076e-01 -8.4817169168849438e-01 0.0000000000000000e+00  1.3583477697705986e+00 -2.9150214946600189e-01 0.0000000000000000e+00  1.4328788764158151e+00 2.8336476375147351e-01 0.0000000000000000e+00  1.2359258545668919e+00 2.0159036314737241e-01 0.0000000000000000e+00  1.0339629017103709e+00 -1.2548150944086245e-01 0.0000000000000000e+00  2.6957633746869064e-01 1.5454007335156892e-02 0.0000000000000000e+00  -6.1777985757386189e-02 -2.3366606191424222e-02 0.0000000000000000e+00  -6.2962436034804475e-02 -1.8674279353142736e-01 0.0000000000000000e+00  1.6438588696560406e+00 -4.4442547690410961e-01 0.0000000000000000e+00  1.5409389790146213e+00 2.7277635454514365e-01 0.0000000000000000e+00  6.8140031444524463e-02 -1.3086029858120782e-01 0.0000000000000000e+00  1.5654553420969144e+00 -1.0772195997781682e+00 0.0000000000000000e+00  7.6789867055211580e-01 1.4110965337581077e-01 0.0000000000000000e+00  3.3899689788595155e-01 -6.9298129239838387e-03 0.0000000000000000e+00  1.8487054140992270e+00 4.4505360887383127e-01 0.0000000000000000e+00  9.3756105332999728e-01 -5.3766764057658345e-01 0.0000000000000000e+00  1.3983748816986203e+00 -7.1453626718581922e-02 0.0000000000000000e+00  9.6265890077446625e-01 5.7105519773994924e-03 0.0000000000000000e+00  8.6678094110947757e-01 -2.6549047259943764e-01 0.0000000000000000e+00  5.8508446489134203e-01 -1.2497202847175534e-02 0.0000000000000000e+00  1.8666067571953500e+00 -3.2115911457589097e-01 0.0000000000000000e+00  -5.8017816259145011e-02 -2.4119037237966465e-01 0.0000000000000000e+00  1.4823784655709373e+00 1.0846232716736253e+00 0.0000000000000000e+00  -5.8654850534810066e-02 -2.7575662210327989e-01 0.0000000000000000e+00  1.8574312707588332e+00 7.5525098708043881e-01 0.0000000000000000e+00  8.2112650030868051e-01 8.7633882354957704e-01 0.0000000000000000e+00  4.2625760555967229e-01 1.4220875897464119e-01 0.0000000000000000e+00  1.2396456420524702e+00 3.0657772256790150e-01 0.0000000000000000e+00  1.5302051043768545e+00 -1.8194478050916754e-01 0.0000000000000000e+00  9.8273665014851352e-01 8.3756853713376184e-02 0.0000000000000000e+00  1.3768999872155137e+00 2.4130786421770231e-01 0.0000000000000000e+00  -4.9665533457422119e-02 1.9020665190255633e-02 0.0000000000000000e+00  6.1320070623591993e-01 -6.8660265562615719e-01 0.0000000000000000e+00  7.0539850211401134e-01 2.4512495595821499e-01 0.0000000000000000e+00  2.0248114001571191e+00 -8.0457955288283001e-01 0.0000000000000000e+00  9.6124789736354199e-01 3.9883703581546498e-02 0.0000000000000000e+00  3.0185161462829951e-01 2.0448022785389902e-02 0.0000000000000000e+00  -3.7935878410358326e-01 8.2117627044669217e-01 0.0000000000000000e+00  1.4616451908725676e+00 -3.7809838922537427e-02 0.0000000000000000e+00  1.2056128351530864e+00 -1.1352025767825393e+00 0.0000000000000000e+00  1.3237439016039947e+00 -1.5364442102341230e-01 0.0000000000000000e+00  8.8842017385635674e-01 -1.2072213596045302e-01 0.0000000000000000e+00  1.0430181134965359e+00 -4.4784808830996869e-01 0.0000000000000000e+00  8.7127449042406679e-01 -4.3751091426252803e-02 0.0000000000000000e+00  4.4212022704186359e-02 -5.5038778299094482e-02 0.0000000000000000e+00  1.3532205860768367e+00 6.4624312276210946e-02 0.0000000000000000e+00  1.9208641597930116e+00 -5.1460313139499192e-01 0.0000000000000000e+00  7.7344516318733780e-01 -2.0430822767593540e-01 0.0000000000000000e+00  1.8441256841435858e+00 -1.0267060962366452e+00 0.0000000000000000e+00  7.5908039688919915e-01 -2.9634545258205438e-02 0.0000000000000000e+00  1.9658214030179255e+00 3.4542390908820314e-01 0.0000000000000000e+00  9.9807717198407886e-01 4.4561368778567051e-01 0.0000000000000000e+00  1.4124960891651770e+00 6.3036931307304839e-02 0.0000000000000000e+00  1.0008911157454787e+00 1.5245361170108757e-01 0.0000000000000000e+00  -2.3208894108725656e-01 -1.0823758422783152e-01 0.0000000000000000e+00  1.0517131224651799e+00 8.6182474730161912e-02 0.0000000000000000e+00  1.3471520598171394e+00 4.0616303746915100e-01 0.0000000000000000e+00  1.2893654676981467e+00 -1.6503467067421736e-02 0.0000000000000000e+00  1.2671437454471317e+00 1.2784266845475681e-01 0.0000000000000000e+00  1.4968074397656348e+00 -3.5899757705092339e-01 0.0000000000000000e+00  1.3012013527239603e+00 9.9370673629712802e-02 0.0000000000000000e+00  1.5849957495604854e+00 -7.4674551914641132e-02 0.0000000000000000e+00  1.2706602033288992e+00 4.8647647714896450e-02 0.0000000000000000e+00  1.8753343944556926e+00 7.6646840404396720e-04 0.0000000000000000e+00  -2.1071703200592994e-02 -9.8327459206786524e-02 0.0000000000000000e+00  1.5632633353229379e+00 3.6292547625090643e-01 0.0000000000000000e+00  1.5503130064235702e+00 3.8845478715133536e-01 0.0000000000000000e+00  1.5521133828687121e+00 3.5760856051604140e-01 0.0000000000000000e+00  1.7165614176307593e+00 -4.4382148899927065e-01 0.0000000000000000e+00  1.0828349821644081e+00 1.3059773828101215e-01 0.0000000000000000e+00  1.5791239251857125e+00 -4.9366098614178239e-01 0.0000000000000000e+00  1.6698282066499490e+00 4.4067691880986870e-01 0.0000000000000000e+00  1.5889409273072899e+00 -7.5013428502335869e-03 0.0000000000000000e+00  -7.8859871858290562e-02 -1.1301285850510210e-02 0.0000000000000000e+00  1.2831571129676571e+00 -3.5210646667374573e-01 0.0000000000000000e+00  1.4780348248520241e+00 5.8788677345432172e-01 0.0000000000000000e+00  1.4737463315783597e+00 1.7686956279060539e-01 0.0000000000000000e+00  8.0548295130307512e-01 -2.2901669466811936e-01 0.0000000000000000e+00  5.3351141069996733e-01 -1.8348906317207776e-02 0.0000000000000000e+00  9.5803447195899383e-01 1.7676349540799313e-01 0.0000000000000000e+00  1.3828564749018286e+00 -1.7957615002195776e-01 0.0000000000000000e+00  1.8562552517263522e+00 2.0166675031492406e-01 0.0000000000000000e+00  8.3183367733774383e-01 1.2755756204832480e-01 0.0000000000000000e+00  1.0757801646660055e+00 -2.4348750127757657e-01 0.0000000000000000e+00  9.6557351348026665e-01 -1.4749342890341555e-01 0.0000000000000000e+00  -4.5462580805990394e-01 3.4465082047360157e-01 0.0000000000000000e+00  -3.2509993072832472e-01 8.7246140953885498e-02 0.0000000000000000e+00  8.9999733654002090e-01 -4.9069496615225736e-02 0.0000000000000000e+00  7.1844380198279190e-01 -4.3868467702392486e-02 0.0000000000000000e+00  3.4360086111041477e-01 -2.7147237393088403e-01 0.0000000000000000e+00  1.8635661704168887e+00 9.4914466252194421e-02 0.0000000000000000e+00  1.5208356177833551e+00 -9.3581355935673394e-01 0.0000000000000000e+00  8.7823413668424577e-01 -1.1841543597722726e-01 0.0000000000000000e+00  1.5006512034426134e+00 5.3236811877619070e-02 0.0000000000000000e+00  6.0751353226683691e-01 -2.8155181982445470e-03 0.0000000000000000e+00  4.3125212606591301e-01 -2.3978189836749677e-02 0.0000000000000000e+00  1.1452606559181318e+00 -1.1256424903036111e-01 0.0000000000000000e+00  8.2334396436563539e-01 1.4598568311576968e-01 0.0000000000000000e+00  1.0661002641424724e+00 1.0961324373225865e+00 0.0000000000000000e+00  1.6347544613647744e+00 9.3809984552070502e-01 0.0000000000000000e+00  4.3686525590479391e-01 5.9691037562256344e-01 0.0000000000000000e+00  3.1172755781471317e-01 -3.0975020047175639e-01 0.0000000000000000e+00  5.8940954426983794e-01 2.1725996136847697e-01 0.0000000000000000e+00  -2.1742272836261442e-02 3.5177588916192472e-02 0.0000000000000000e+00  1.3911916724303568e+00 3.6216048397254741e-01 0.0000000000000000e+00  -6.3149648415416551e-02 -1.1964516596776852e-01 0.0000000000000000e+00  -6.2321096683640879e-02 -2.6211856556328950e-01 0.0000000000000000e+00  1.4220384024797386e+00 -2.0466523316032478e-01 0.0000000000000000e+00  1.1437167726888025e+00 -1.3384380312170868e-01 0.0000000000000000e+00  7.7511401997663310e-01 -1.0443156833634604e+00 0.0000000000000000e+00  6.6024202975000723e-01 -3.0115689153049456e-02 0.0000000000000000e+00  6.0739566403433098e-01 4.5795076860901777e-02 0.0000000000000000e+00  7.9434277989846558e-01 5.3177047114638387e-02 0.0000000000000000e+00  4.2579515910611326e-01 -1.4795034888271735e-01 0.0000000000000000e+00  1.4101405422421411e+00 -4.8267513518064742e-01 0.0000000000000000e+00  1.0643850847095526e+00 -5.3836616603677423e-01 0.0000000000000000e+00  4.6191890130840579e-01 2.3055715259211705e-02 0.0000000000000000e+00  8.5237422146379638e-01 -5.9964493631415497e-02 0.0000000000000000e+00  -1.6517076731768131e-02 -2.4732199486356421e-01 0.0000000000000000e+00  7.4457170942010897e-01 7.8145966452261184e-02 0.0000000000000000e+00  1.1021530736880538e+00 5.9200671506049837e-02 0.0000000000000000e+00  4.8638836059860224e-01 1.1447187673784973e-01 0.0000000000000000e+00  1.7739179573869917e+00 1.0571814539191898e-01 0.0000000000000000e+00  1.4594683881688748e+00 -3.0707778110107335e-02 0.0000000000000000e+00  1.5494806093092834e+00 5.5893406295014769e-01 0.0000000000000000e+00  1.1389052323216164e+00 4.7382015000525766e-02 0.0000000000000000e+00  1.4025557609119457e+00 -4.3156706872137351e-01 0.0000000000000000e+00  1.5933774290030058e+00 -4.6495601700097355e-01 0.0000000000000000e+00  1.4377801608062186e+00 -2.6923610384695879e-01 0.0000000000000000e+00  1.4818944614722720e+00 -4.0165073989531769e-01 0.0000000000000000e+00  1.0907101712593075e+00 -3.8531493459109906e-01 0.0000000000000000e+00  7.3624841630077520e-01 2.1429589626760293e-01 0.0000000000000000e+00  1.2294598557881455e+00 4.7378043634691103e-01 0.0000000000000000e+00  1.4710314479365947e+00 1.4758660867396256e-01 0.0000000000000000e+00  1.0621450988004875e+00 2.4542250439513855e-01 0.0000000000000000e+00  1.4344185215703276e+00 4.